/*--------------------------------*- C++ -*----------------------------------*\
| =========                 |                                                 |
| \\      /  F ield         | OpenFOAM: The Open Source CFD Toolbox           |
|  \\    /   O peration     | Version:  4.1                                   |
|   \\  /    A nd           | Web:      www.OpenFOAM.org                      |
|    \\/     M anipulation  |                                                 |
\*---------------------------------------------------------------------------*/
FoamFile
{
    version     2.0;
    format      ascii;
    class       volScalarField;
    location    "0.0054";
    object      mag(U);
}
// * * * * * * * * * * * * * * * * * * * * * * * * * * * * * * * * * * * * * //

dimensions      [0 1 -1 0 0 0 0];

internalField   nonuniform List<scalar> 
1000
(
1.16134e-11
1.09242e-11
1.33123e-11
1.0433e-11
1.0893e-11
1.06402e-11
1.17425e-11
1.31135e-11
1.3542e-11
1.58048e-11
1.22887e-11
1.08982e-11
8.50275e-12
9.09209e-12
5.86834e-12
7.25997e-12
2.0147e-12
4.09114e-12
8.3514e-13
4.01519e-12
2.78068e-13
4.75522e-12
5.62984e-12
8.64225e-12
5.63808e-12
8.03403e-12
8.08117e-12
1.02941e-11
1.26476e-11
1.29923e-11
1.6306e-11
1.77047e-11
2.0143e-11
2.02856e-11
2.26972e-11
1.74723e-11
2.17484e-11
2.07913e-11
2.4951e-11
2.08178e-11
2.20143e-11
1.85521e-11
2.12014e-11
1.6833e-11
1.85489e-11
1.59789e-11
1.87498e-11
1.70116e-11
2.05464e-11
1.78053e-11
1.8493e-11
1.57703e-11
1.77722e-11
1.94447e-11
1.76341e-11
1.70494e-11
1.79111e-11
1.85972e-11
1.577e-11
1.76259e-11
1.34301e-11
1.48428e-11
1.18407e-11
1.30106e-11
8.4994e-12
1.04334e-11
6.80023e-12
7.19941e-12
3.11401e-12
6.18749e-12
1.89944e-12
8.07685e-12
5.97747e-12
9.67076e-12
4.83673e-12
9.76731e-12
7.55421e-12
1.05715e-11
9.25734e-12
7.67791e-12
6.04419e-12
5.32678e-12
2.86197e-12
3.96159e-12
3.08782e-12
1.97326e-12
3.17504e-12
2.89602e-13
3.76824e-12
4.6275e-13
3.59572e-12
1.28965e-12
5.08812e-12
1.81387e-12
1.53056e-13
3.83222e-12
1.3002e-12
1.29248e-12
2.7356e-12
5.37737e-12
6.17668e-12
4.11623e-12
7.2104e-12
6.95383e-12
1.05555e-11
8.64284e-12
8.63004e-12
1.00315e-11
8.09187e-12
1.11952e-11
1.10049e-11
1.18509e-11
1.24014e-11
1.00072e-11
1.13318e-11
1.22384e-11
1.33023e-11
1.07331e-11
1.12205e-11
1.06045e-11
1.10311e-11
1.2925e-11
1.17547e-11
1.16244e-11
1.23882e-11
1.41015e-11
1.4546e-11
1.59586e-11
1.23676e-11
1.54504e-11
1.62985e-11
1.66102e-11
1.84671e-11
1.82412e-11
1.95601e-11
1.98048e-11
1.781e-11
1.67381e-11
1.62787e-11
1.82546e-11
1.73064e-11
1.58706e-11
1.55934e-11
1.81862e-11
1.71881e-11
1.74123e-11
1.89304e-11
1.56689e-11
1.69708e-11
1.5193e-11
1.5325e-11
1.20344e-11
1.37744e-11
1.02259e-11
1.47595e-11
1.39195e-11
1.29725e-11
1.45776e-11
1.35915e-11
1.67474e-11
1.86287e-11
1.91835e-11
1.97709e-11
2.10963e-11
2.22125e-11
2.3257e-11
2.23922e-11
2.15268e-11
2.0708e-11
2.09512e-11
2.08786e-11
2.11148e-11
2.05676e-11
2.08294e-11
1.83109e-11
1.86755e-11
1.70192e-11
1.84859e-11
1.43111e-11
1.46399e-11
1.1156e-11
1.24209e-11
1.13597e-11
1.41264e-11
1.55735e-11
1.75143e-11
1.80075e-11
1.91396e-11
1.58849e-11
1.56124e-11
1.79674e-11
1.49232e-11
1.8697e-11
1.3309e-11
1.48553e-11
1.06557e-11
1.15682e-11
9.11992e-12
1.11573e-11
6.56681e-12
1.09173e-11
9.7586e-12
1.34145e-11
1.12769e-11
1.1835e-11
8.96641e-12
9.56013e-12
8.23016e-12
1.0193e-11
1.23782e-11
1.17971e-11
1.23576e-11
1.13864e-11
1.11682e-11
9.78597e-12
1.21696e-11
7.9828e-12
1.47195e-11
1.06304e-11
1.67125e-11
1.41731e-11
1.86867e-11
1.31531e-11
1.56695e-11
1.19608e-11
1.63736e-11
1.12704e-11
1.69139e-11
1.85101e-11
2.96555e-11
4.98793e-11
9.79766e-11
1.96498e-10
3.95492e-10
8.04791e-10
1.61988e-09
3.24968e-09
6.46128e-09
1.27673e-08
2.50257e-08
4.87021e-08
9.40455e-08
1.80234e-07
3.42727e-07
6.46639e-07
1.21036e-06
2.24731e-06
4.13858e-06
7.55824e-06
1.36871e-05
2.4573e-05
4.37317e-05
7.71355e-05
0.000134821
0.000233468
0.00040048
0.000680347
0.00114441
0.00190562
0.0031404
0.00512057
0.00825871
0.0131715
0.0207659
0.0323523
0.0497893
0.0756604
0.113479
0.167911
0.244987
0.352276
0.498956
0.695716
0.954403
1.28731
1.70597
2.21923
2.83024
3.53436
4.32198
5.18367
6.11189
7.10014
8.14231
9.23251
10.3651
11.535
12.7376
13.9686
15.2244
16.502
17.7986
19.112
20.4401
21.7813
23.1342
24.4974
25.8701
27.2511
28.6398
30.0355
31.4375
32.8453
34.2584
35.6764
37.0989
38.5256
39.9562
41.3904
42.828
44.2687
45.7123
47.1587
48.6076
50.0589
51.5125
52.9682
54.4259
55.8855
57.3468
58.8098
60.2743
61.7403
63.2076
64.6762
66.146
67.6169
69.0888
70.5617
72.0355
73.5101
74.9855
76.4615
77.9382
79.4155
80.8932
82.3714
83.85
85.3289
86.808
88.2874
89.7669
91.2466
92.7262
94.2059
95.6854
97.1649
98.6441
100.123
101.602
103.08
104.558
106.035
107.512
108.988
110.464
111.939
113.412
114.885
116.357
117.828
119.298
120.767
122.234
123.7
125.164
126.627
128.088
129.547
131.004
132.459
133.912
135.363
136.811
138.256
139.699
141.139
142.575
144.008
145.438
146.864
148.286
149.704
151.117
152.526
153.929
155.327
156.719
158.105
159.485
160.857
162.222
163.58
164.928
166.268
167.598
168.918
170.226
171.523
172.807
174.077
175.332
176.572
177.795
179
180.185
181.349
182.491
183.608
184.7
185.763
186.798
187.8
188.768
189.7
190.593
191.446
192.256
193.02
193.738
194.406
195.024
195.59
196.103
196.564
196.972
197.328
197.634
197.893
198.107
198.281
198.417
198.521
198.596
198.649
198.682
198.701
198.708
198.71
198.711
198.71
198.708
198.703
198.693
198.678
198.661
198.644
198.631
198.62
198.611
198.604
198.6
198.596
198.594
198.592
198.591
198.59
198.589
198.589
198.588
198.587
198.587
198.586
198.585
198.584
198.584
198.583
198.582
198.582
198.581
198.581
198.58
198.579
198.579
198.578
198.578
198.577
198.577
198.576
198.575
198.575
198.574
198.574
198.573
198.572
198.572
198.572
198.571
198.571
198.57
198.569
198.569
198.568
198.568
198.567
198.567
198.566
198.566
198.565
198.565
198.564
198.564
198.563
198.563
198.562
198.562
198.561
198.561
198.56
198.56
198.559
198.559
198.558
198.558
198.557
198.557
198.556
198.556
198.555
198.555
198.555
198.554
198.554
198.554
198.553
198.553
198.553
198.552
198.552
198.552
198.552
198.551
198.551
198.551
198.551
198.55
198.55
198.55
198.55
198.55
198.549
198.549
198.549
198.549
198.549
198.549
198.549
198.548
198.548
198.548
198.548
198.548
198.547
198.547
198.547
198.547
198.547
198.546
198.546
198.546
198.546
198.546
198.545
198.545
198.545
198.544
198.544
198.544
198.543
198.543
198.543
198.542
198.542
198.542
198.541
198.541
198.54
198.54
198.539
198.539
198.539
198.539
198.538
198.538
198.537
198.537
198.537
198.537
198.538
198.538
198.537
198.537
198.537
198.537
198.538
198.538
198.539
198.541
198.546
198.554
198.57
198.621
198.743
198.847
198.78
198.634
198.548
198.496
198.466
198.477
198.511
198.525
198.511
198.509
198.535
198.554
198.538
198.514
198.524
198.551
198.549
198.521
198.514
198.543
198.559
198.533
198.507
198.524
198.553
198.539
198.503
198.506
198.541
198.55
198.519
198.5
198.526
198.553
198.531
198.497
198.509
198.546
198.55
198.516
198.498
198.524
198.55
198.531
198.499
198.51
198.544
198.542
198.508
198.498
198.529
198.55
198.525
198.495
198.511
198.544
198.537
198.502
198.499
198.534
198.547
198.514
198.49
198.517
198.549
198.53
198.492
198.499
198.537
198.543
198.507
198.487
198.517
198.547
198.524
198.488
198.499
198.536
198.537
198.5
198.485
198.519
198.543
198.514
198.48
198.499
198.537
198.53
198.489
198.481
198.517
198.537
198.505
198.474
198.496
198.531
198.519
198.478
198.476
198.514
198.527
198.49
198.462
198.489
198.523
198.503
198.461
198.465
198.503
198.51
198.469
198.446
198.475
198.503
198.476
198.435
198.444
198.482
198.476
198.43
198.414
198.448
198.466
198.426
198.385
198.402
198.437
198.417
198.363
198.351
198.384
198.392
198.342
198.3
198.316
198.342
198.308
198.248
198.235
198.261
198.252
198.189
198.142
198.152
198.161
198.108
198.037
198.016
198.025
197.993
197.912
197.854
197.842
197.823
197.746
197.657
197.61
197.583
197.513
197.399
197.307
197.252
197.188
197.057
196.908
196.807
196.73
196.586
196.369
196.187
196.061
195.902
195.614
195.306
195.09
194.896
194.533
194.045
193.645
193.303
192.851
192.132
191.087
189.497
186.687
180.018
157.483
97.0959
32.5662
8.58074
2.09903
0.5005
0.118546
0.0280397
0.00663113
0.00156806
0.000370779
8.76681e-05
2.07278e-05
4.90065e-06
1.15864e-06
2.73929e-07
6.47675e-08
1.53153e-08
3.62604e-09
8.58578e-10
2.05084e-10
5.0498e-11
1.62075e-11
8.68881e-12
6.84583e-12
6.18919e-12
9.14098e-12
6.96795e-12
4.76732e-12
3.96413e-12
2.48236e-12
3.92192e-13
3.99452e-12
2.10866e-12
5.73365e-12
5.42874e-12
4.09743e-12
7.43388e-12
3.74974e-12
6.30977e-12
5.68334e-12
3.46796e-12
5.16994e-12
5.99371e-12
6.21909e-12
7.5989e-12
8.07866e-12
6.38901e-12
6.954e-12
9.26937e-12
9.12636e-12
9.82551e-12
8.43973e-12
8.83746e-12
8.94289e-12
8.33447e-12
3.40649e-12
5.44721e-12
8.83096e-13
3.33633e-12
5.2146e-13
2.19921e-12
2.5581e-12
1.18832e-13
4.44784e-12
4.81845e-12
3.18952e-12
3.55464e-12
5.06907e-12
6.64043e-12
4.43362e-12
5.14448e-12
2.84224e-12
4.95632e-12
5.33954e-12
5.01463e-12
6.89596e-12
4.2098e-12
4.67748e-12
5.61409e-12
6.95785e-12
3.10093e-12
5.25982e-12
3.22663e-12
5.25087e-12
3.75928e-12
2.93185e-12
8.06142e-12
6.73507e-12
5.92135e-12
2.10417e-12
3.32651e-12
4.8078e-12
5.32479e-12
6.68937e-12
6.50749e-12
1.00983e-11
8.11431e-12
1.02026e-11
9.81593e-12
1.0865e-11
1.42236e-11
1.60924e-11
1.90708e-11
1.95897e-11
2.27626e-11
2.30212e-11
2.61418e-11
2.42848e-11
2.48772e-11
2.62752e-11
2.70715e-11
2.51849e-11
2.51381e-11
2.36929e-11
2.34198e-11
2.0611e-11
2.31716e-11
2.27709e-11
2.30747e-11
2.35761e-11
2.40731e-11
2.11297e-11
2.20991e-11
2.19395e-11
1.99974e-11
2.11896e-11
2.02585e-11
1.98808e-11
1.8993e-11
2.0505e-11
2.11507e-11
2.03748e-11
1.83944e-11
2.1545e-11
1.92119e-11
1.92469e-11
1.68525e-11
1.85688e-11
1.76036e-11
2.18717e-11
2.09154e-11
2.07831e-11
2.02176e-11
2.28452e-11
2.32082e-11
2.3504e-11
2.51293e-11
2.46746e-11
2.18565e-11
2.07415e-11
2.27688e-11
2.13704e-11
1.97593e-11
2.18909e-11
2.15383e-11
2.44483e-11
2.39066e-11
2.6638e-11
2.71953e-11
3.05179e-11
3.00565e-11
3.17797e-11
3.27451e-11
3.21048e-11
3.05598e-11
3.09952e-11
3.13951e-11
3.32886e-11
3.34994e-11
3.1813e-11
3.05481e-11
2.98616e-11
3.11033e-11
2.90082e-11
2.88011e-11
2.85354e-11
3.03216e-11
2.98535e-11
3.13235e-11
3.093e-11
3.33207e-11
3.10212e-11
3.22192e-11
3.1573e-11
3.58651e-11
3.47245e-11
3.41083e-11
3.3851e-11
3.25256e-11
3.10997e-11
3.02697e-11
2.97002e-11
2.83437e-11
2.91586e-11
2.96997e-11
3.10862e-11
2.94576e-11
2.86428e-11
2.70353e-11
2.73114e-11
2.67211e-11
2.85287e-11
2.60473e-11
2.88382e-11
2.57546e-11
2.93334e-11
2.37481e-11
2.54039e-11
2.41334e-11
)
;

boundaryField
{
    sides
    {
        type            calculated;
        value           nonuniform List<scalar> 2(2.41334e-11 1.16134e-11);
    }
    empty
    {
        type            empty;
    }
}


// ************************************************************************* //
