/*--------------------------------*- C++ -*----------------------------------*\
| =========                 |                                                 |
| \\      /  F ield         | OpenFOAM: The Open Source CFD Toolbox           |
|  \\    /   O peration     | Version:  4.1                                   |
|   \\  /    A nd           | Web:      www.OpenFOAM.org                      |
|    \\/     M anipulation  |                                                 |
\*---------------------------------------------------------------------------*/
FoamFile
{
    version     2.0;
    format      ascii;
    class       volScalarField;
    location    "0.0054";
    object      p;
}
// * * * * * * * * * * * * * * * * * * * * * * * * * * * * * * * * * * * * * //

dimensions      [1 -1 -2 0 0 0 0];

internalField   nonuniform List<scalar> 
1000
(
100000
100000
100000
100000
100000
100000
100000
100000
100000
100000
100000
100000
100000
100000
100000
100000
100000
100000
100000
100000
100000
100000
100000
100000
100000
100000
100000
100000
100000
100000
100000
100000
100000
100000
100000
100000
100000
100000
100000
100000
100000
100000
100000
100000
100000
100000
100000
100000
100000
100000
100000
100000
100000
100000
100000
100000
100000
100000
100000
100000
100000
100000
100000
100000
100000
100000
100000
100000
100000
100000
100000
100000
100000
100000
100000
100000
100000
100000
100000
100000
100000
100000
100000
100000
100000
100000
100000
100000
100000
100000
100000
100000
100000
100000
100000
100000
100000
100000
100000
100000
100000
100000
100000
100000
100000
100000
100000
100000
100000
100000
100000
100000
100000
100000
100000
100000
100000
100000
100000
100000
100000
100000
100000
100000
100000
100000
100000
100000
100000
100000
100000
100000
100000
100000
100000
100000
100000
100000
100000
100000
100000
100000
100000
100000
100000
100000
100000
100000
100000
100000
100000
100000
100000
100000
100000
100000
100000
100000
100000
100000
100000
100000
100000
100000
100000
100000
100000
100000
100000
100000
100000
100000
100000
100000
100000
100000
100000
100000
100000
100000
100000
100000
100000
100000
100000
100000
100000
100000
100000
100000
100000
100000
100000
100000
100000
100000
100000
100000
100000
100000
100000
100000
100000
100000
100000
100000
100000
100000
100000
100000
100000
100000
100000
100000
100000
100000
100000
100000
100000
100000
100000
100000
100000
100000
100000
100000
100000
100000
100000
100000
100000
100000
100000
100000
100000
100000
100000
100000
100000
100000
100000
100000
100000
100000
100000
100000
100000
100000
100000
100000
100000
100000
100000
100000
99999.9
99999.9
99999.8
99999.6
99999.3
99998.9
99998.2
99997.2
99995.5
99992.8
99988.8
99982.8
99973.8
99960.7
99941.9
99915.1
99877.9
99827
99758.6
99668.7
99553
99407.4
99228.9
99016.2
98771.3
98498.2
98200.5
97880.8
97541.6
97185.1
96813.5
96428.7
96032.8
95627.5
95214.1
94794
94368.4
93938.2
93504.2
93067.1
92627.5
92186
91743
91298.8
90853.8
90408.3
89962.4
89516.5
89070.7
88625.1
88180
87735.3
87291.4
86848.2
86405.8
85964.3
85523.9
85084.5
84646.3
84209.2
83773.4
83338.8
82905.6
82473.7
82043.2
81614.1
81186.5
80760.4
80335.8
79912.7
79491.2
79071.3
78652.9
78236.2
77821.1
77407.6
76995.8
76585.6
76177.2
75770.4
75365.4
74962.1
74560.5
74160.7
73762.6
73366.2
72971.7
72578.9
72187.9
71798.7
71411.3
71025.8
70642
70260.1
69880
69501.7
69125.3
68750.8
68378.1
68007.2
67638.3
67271.3
66906.1
66542.8
66181.5
65822.1
65464.6
65109
64755.4
64403.8
64054.1
63706.4
63360.7
63017.1
62675.4
62335.8
61998.2
61662.7
61329.3
60998
60668.8
60341.8
60016.9
59694.3
59373.9
59055.7
58739.8
58426.3
58115.1
57806.3
57499.9
57196
56894.7
56595.9
56299.8
56006.4
55715.8
55428.1
55143.2
54861.4
54582.7
54307.1
54034.9
53766.2
53501
53239.5
52981.8
52728.1
52478.7
52233.6
51993.2
51757.3
51526.9
51301.3
51081.6
50867.6
50659.8
50458.5
50263.8
50076.6
49896.6
49724.7
49561
49405.8
49259.7
49122.8
48995.4
48877.9
48770.4
48672.9
48585.4
48508.1
48440.4
48382.1
48333
48292
48258.9
48233.1
48212.9
48198.2
48188.3
48181.6
48177.9
48176
48176
48176
48176.2
48176.5
48177.3
48178.8
48181.6
48184.5
48187.4
48190
48192.2
48193.8
48195.1
48196
48196.6
48197
48197.3
48197.5
48197.7
48197.8
48197.9
48198.1
48198.2
48198.3
48198.4
48198.5
48198.6
48198.7
48198.8
48198.9
48199
48199.1
48199.2
48199.3
48199.4
48199.5
48199.6
48199.7
48199.8
48199.9
48200
48200.1
48200.1
48200.2
48200.3
48200.4
48200.5
48200.6
48200.7
48200.7
48200.8
48200.9
48201
48201
48201.1
48201.2
48201.2
48201.3
48201.4
48201.5
48201.6
48201.6
48201.7
48201.8
48201.8
48201.9
48202
48202.1
48202.1
48202.2
48202.3
48202.4
48202.4
48202.5
48202.6
48202.6
48202.7
48202.8
48202.8
48202.9
48203
48203
48203.1
48203.1
48203.2
48203.2
48203.2
48203.3
48203.3
48203.3
48203.3
48203.4
48203.4
48203.4
48203.4
48203.4
48203.4
48203.4
48203.5
48203.5
48203.5
48203.5
48203.5
48203.5
48203.5
48203.5
48203.5
48203.5
48203.5
48203.5
48203.5
48203.5
48203.5
48203.5
48203.5
48203.6
48203.6
48203.6
48203.6
48203.6
48203.7
48203.7
48203.7
48203.7
48203.7
48203.7
48203.7
48203.8
48203.8
48203.8
48203.8
48203.8
48203.8
48203.9
48204
48204
48203.9
48204
48204
48204
48204
48204
48204
48204
48204
48204
48203.9
48203.9
48203.8
48203.8
48203.9
48203.8
48203.7
48203.6
48203.7
48203.6
48203.6
48203.3
48203.1
48203.5
48204
48204.5
48204
48203.5
48207.8
48223.9
48188
48197.7
48206.5
48204.3
48196.6
48201.7
48210.6
48210.7
48199.5
48196.9
48208
48213.6
48204.1
48195.8
48201.7
48212.8
48210.5
48196.8
48195.5
48210.7
48215
48200.9
48193.2
48204.2
48215.2
48207.4
48192.5
48196.4
48213.7
48214.5
48197
48192.8
48208.4
48216.1
48203.4
48191.3
48198.9
48215.2
48214.3
48196.2
48192.8
48208
48215.3
48203.8
48192.8
48200
48214.5
48211.9
48194.3
48193.1
48210.7
48215.8
48201
48191.8
48202
48215
48209.6
48192.8
48194.4
48213.1
48215.3
48196.8
48190.6
48206.4
48216.9
48205.9
48190.6
48196.1
48215
48214.6
48194.5
48190.3
48207.7
48216.7
48203.9
48190.2
48197.3
48215
48212.8
48192.9
48190.7
48209.7
48216.4
48200.2
48188.8
48200
48215.9
48210.4
48190.7
48190.8
48210.9
48215.5
48197.8
48188.5
48201.4
48215.1
48207.4
48189.3
48191.6
48211.7
48214.1
48194.3
48187
48202.9
48214.7
48203.6
48187.2
48191.8
48211.4
48211.5
48190.7
48185.7
48203.2
48212.7
48198.3
48184.2
48192.2
48210
48206.1
48184.4
48182.8
48203.5
48209.4
48188.9
48177.7
48190.7
48206.4
48197.1
48175.9
48176.7
48197.8
48200.9
48177.7
48168.7
48182.7
48196.3
48182.6
48163
48165.1
48184.9
48184.5
48158.3
48151.4
48165.7
48176.5
48156.7
48139.7
48142.1
48158.6
48153.4
48126.1
48120.8
48130.1
48137.7
48113
48097.9
48097
48106.9
48097.6
48067.2
48060.3
48061.2
48066.3
48030.7
48007.7
48002.4
48009
47990.1
47937.7
47925.1
47926.5
47929.7
47854.4
47812.7
47801.5
47811.8
47753.5
47644.1
47613.2
47609.6
47597.3
47404.2
47268.2
47116.7
46800.3
46111.6
43887.3
34138.1
27688.3
25703.5
25171.1
25040.7
25009.6
25002.3
25000.5
25000.1
25000
25000
25000
25000
25000
25000
25000
25000
25000
25000
25000
25000
25000
25000
25000
25000
25000
25000
25000
25000
25000
25000
25000
25000
25000
25000
25000
25000
25000
25000
25000
25000
25000
25000
25000
25000
25000
25000
25000
25000
25000
25000
25000
25000
25000
25000
25000
25000
25000
25000
25000
25000
25000
25000
25000
25000
25000
25000
25000
25000
25000
25000
25000
25000
25000
25000
25000
25000
25000
25000
25000
25000
25000
25000
25000
25000
25000
25000
25000
25000
25000
25000
25000
25000
25000
25000
25000
25000
25000
25000
25000
25000
25000
25000
25000
25000
25000
25000
25000
25000
25000
25000
25000
25000
25000
25000
25000
25000
25000
25000
25000
25000
25000
25000
25000
25000
25000
25000
25000
25000
25000
25000
25000
25000
25000
25000
25000
25000
25000
25000
25000
25000
25000
25000
25000
25000
25000
25000
25000
25000
25000
25000
25000
25000
25000
25000
25000
25000
25000
25000
25000
25000
25000
25000
25000
25000
25000
25000
25000
25000
25000
25000
25000
25000
25000
25000
25000
25000
25000
25000
25000
25000
25000
25000
25000
25000
25000
25000
25000
25000
25000
25000
25000
25000
25000
25000
25000
25000
25000
25000
25000
25000
25000
25000
25000
25000
25000
25000
25000
25000
)
;

boundaryField
{
    sides
    {
        type            zeroGradient;
    }
    empty
    {
        type            empty;
    }
}


// ************************************************************************* //
