/*--------------------------------*- C++ -*----------------------------------*\
| =========                 |                                                 |
| \\      /  F ield         | OpenFOAM: The Open Source CFD Toolbox           |
|  \\    /   O peration     | Version:  4.1                                   |
|   \\  /    A nd           | Web:      www.OpenFOAM.org                      |
|    \\/     M anipulation  |                                                 |
\*---------------------------------------------------------------------------*/
FoamFile
{
    version     2.0;
    format      ascii;
    class       surfaceScalarField;
    location    "0.0054";
    object      phi;
}
// * * * * * * * * * * * * * * * * * * * * * * * * * * * * * * * * * * * * * //

dimensions      [1 0 -1 0 0 0 0];

internalField   nonuniform List<scalar> 
999
(
-3.9357e-11
-4.08704e-11
-4.2597e-11
-3.7339e-11
-3.72751e-11
-3.90301e-11
-4.14886e-11
-4.86153e-11
-5.09814e-11
-4.88356e-11
-4.09486e-11
-3.24007e-11
-3.17257e-11
-2.47482e-11
-2.41158e-11
-1.60441e-11
-9.27258e-12
-6.90648e-12
-4.78906e-12
-6.72884e-12
-9.70601e-12
-1.80336e-11
-2.6148e-11
-2.33982e-11
-2.40803e-11
-2.82085e-11
-3.11076e-11
-4.01172e-11
-4.53468e-11
-5.01004e-11
-5.91456e-11
-6.71108e-11
-6.83755e-11
-7.72218e-11
-6.9079e-11
-6.66418e-11
-7.3932e-11
-7.94529e-11
-8.01919e-11
-7.51328e-11
-6.96687e-11
-6.93419e-11
-6.7601e-11
-6.09646e-11
-5.81863e-11
-6.14691e-11
-6.41336e-11
-6.4297e-11
-6.82974e-11
-6.20162e-11
-5.71703e-11
-6.01759e-11
-6.4567e-11
-6.57394e-11
-5.88898e-11
-6.03535e-11
-6.45954e-11
-5.83356e-11
-5.89111e-11
-5.45839e-11
-4.90914e-11
-4.57945e-11
-4.37339e-11
-3.64793e-11
-3.309e-11
-2.8713e-11
-2.63043e-11
-1.67049e-11
-1.66622e-11
-1.35216e-11
-1.85096e-11
-2.35545e-11
-2.77538e-11
-2.49045e-11
-2.43432e-11
-3.02833e-11
-3.0937e-11
-3.60814e-11
-2.84501e-11
-2.45493e-11
-1.90994e-11
-1.41043e-11
-1.30669e-11
-1.06084e-11
-2.63611e-12
-2.29505e-12
-5.40723e-12
-7.49623e-12
-7.04858e-12
-7.29017e-12
-8.00071e-12
-1.20508e-11
-4.91696e-12
2.33058e-12
7.33991e-12
3.71614e-12
7.81597e-14
6.71463e-12
1.39266e-11
1.94902e-11
1.89573e-11
1.88933e-11
2.52598e-11
3.08091e-11
3.22586e-11
3.13847e-11
3.12639e-11
3.10649e-11
3.55271e-11
3.65645e-11
3.89164e-11
4.28102e-11
4.12683e-11
3.48024e-11
4.09841e-11
4.51763e-11
4.20073e-11
3.82414e-11
3.83125e-11
3.68772e-11
4.13678e-11
4.33786e-11
4.09202e-11
4.08704e-11
4.64908e-11
4.88569e-11
5.55218e-11
4.7514e-11
4.73008e-11
5.55218e-11
5.82787e-11
5.99059e-11
6.43112e-11
6.36717e-11
7.14877e-11
6.36788e-11
6.13412e-11
5.51594e-11
6.21228e-11
6.19167e-11
5.78453e-11
5.22888e-11
6.15898e-11
6.01617e-11
5.98561e-11
6.23359e-11
6.11777e-11
5.70921e-11
5.52305e-11
5.43139e-11
4.67324e-11
4.41247e-11
4.16307e-11
4.31655e-11
5.04343e-11
4.64269e-11
4.82601e-11
4.82032e-11
5.34754e-11
5.93943e-11
6.86597e-11
6.77005e-11
6.79492e-11
7.78542e-11
7.71863e-11
7.94813e-11
7.8515e-11
7.13101e-11
7.30012e-11
7.2184e-11
7.44862e-11
7.13669e-11
7.22551e-11
6.93419e-11
6.18812e-11
6.25562e-11
6.24496e-11
5.70139e-11
5.11946e-11
4.43876e-11
4.12683e-11
4.05862e-11
4.44942e-11
5.13438e-11
5.86908e-11
6.01972e-11
6.55191e-11
6.11635e-11
5.46265e-11
5.83782e-11
5.68789e-11
5.80442e-11
5.71063e-11
4.79474e-11
4.49774e-11
3.82698e-11
3.5989e-11
3.55911e-11
3.19602e-11
2.86349e-11
3.62093e-11
4.20641e-11
4.12612e-11
4.0977e-11
3.6799e-11
3.14557e-11
3.08233e-11
3.26423e-11
3.99893e-11
3.99183e-11
4.31513e-11
4.25899e-11
3.87104e-11
3.55982e-11
3.91012e-11
3.42624e-11
4.02309e-11
4.35207e-11
4.82316e-11
5.32836e-11
5.64384e-11
5.61045e-11
4.88569e-11
4.77698e-11
5.11093e-11
4.66471e-11
4.92548e-11
6.02398e-11
7.88134e-11
1.33213e-10
2.45279e-10
4.88548e-10
9.82396e-10
1.99206e-09
4.02877e-09
8.09652e-09
1.61594e-08
3.20208e-08
6.29848e-08
1.22969e-07
2.38272e-07
4.58183e-07
8.74299e-07
1.65537e-06
3.10957e-06
5.79464e-06
1.07108e-05
1.96348e-05
3.56934e-05
6.43338e-05
0.000114952
0.000203587
0.000357331
0.00062144
0.00107067
0.00182707
0.00308749
0.00516551
0.00855409
0.0140177
0.0227252
0.0364367
0.0577611
0.0905006
0.140098
0.214192
0.323288
0.481496
0.707304
1.02425
1.46138
2.05318
2.83885
3.86047
5.15978
6.77305
8.72321
11.0065
13.5871
16.4236
19.484
22.7425
26.1752
29.7591
33.4724
37.2948
41.208
45.1956
49.2434
53.3389
57.4715
61.6323
65.8134
70.0085
74.2118
78.4186
82.625
86.8273
91.0226
95.2083
99.3821
103.542
107.687
111.814
115.924
120.013
124.083
128.131
132.156
136.159
140.138
144.094
148.024
151.93
155.81
159.664
163.492
167.293
171.068
174.816
178.537
182.231
185.897
189.535
193.146
196.728
200.283
203.81
207.308
210.779
214.221
217.634
221.02
224.377
227.706
231.006
234.278
237.521
240.736
243.923
247.081
250.21
253.312
256.385
259.429
262.446
265.434
268.394
271.325
274.229
277.104
279.951
282.77
285.561
288.324
291.059
293.767
296.446
299.097
301.721
304.317
306.886
309.426
311.939
314.425
316.883
319.313
321.716
324.092
326.44
328.76
331.053
333.319
335.557
337.768
339.952
342.108
344.237
346.338
348.412
350.458
352.476
354.467
356.43
358.365
360.272
362.152
364.002
365.825
367.619
369.384
371.12
372.826
374.504
376.151
377.768
379.355
380.909
382.435
383.923
385.389
386.805
388.21
389.552
390.89
392.164
393.415
394.637
395.782
396.952
397.999
399.078
400.073
401.009
401.965
402.781
403.621
404.397
405.067
405.775
406.364
406.897
407.445
407.861
408.255
408.636
408.904
409.159
409.393
409.541
409.676
409.798
409.863
409.909
409.958
409.977
409.98
409.981
409.982
409.98
409.974
409.968
409.962
409.954
409.937
409.921
409.908
409.896
409.887
409.88
409.874
409.869
409.866
409.863
409.86
409.858
409.856
409.854
409.853
409.851
409.85
409.847
409.845
409.843
409.841
409.839
409.837
409.835
409.833
409.832
409.83
409.828
409.826
409.824
409.822
409.82
409.818
409.816
409.814
409.812
409.81
409.807
409.805
409.803
409.801
409.799
409.797
409.795
409.793
409.79
409.787
409.785
409.782
409.78
409.778
409.775
409.773
409.771
409.768
409.765
409.763
409.76
409.757
409.754
409.752
409.749
409.745
409.743
409.74
409.736
409.733
409.73
409.728
409.724
409.72
409.717
409.715
409.711
409.706
409.703
409.701
409.698
409.693
409.689
409.686
409.683
409.678
409.673
409.669
409.667
409.662
409.657
409.651
409.648
409.645
409.639
409.633
409.627
409.623
409.62
409.615
409.607
409.6
409.595
409.591
409.587
409.579
409.57
409.562
409.557
409.553
409.548
409.539
409.527
409.516
409.508
409.504
409.5
409.492
409.477
409.461
409.448
409.44
409.434
409.429
409.418
409.398
409.376
409.359
409.346
409.34
409.335
409.32
409.291
409.259
409.236
409.22
409.21
409.201
409.184
409.145
409.097
409.05
409.014
408.993
408.982
408.972
408.954
408.9
408.779
408.655
408.552
408.479
408.439
408.424
408.425
408.468
408.63
408.751
408.822
408.852
408.391
404.27
388.018
365.12
345.271
328.07
313.744
302.55
294.303
288.001
283.124
279.639
277.507
276.195
275.118
274.161
273.716
273.795
273.726
273.328
273.129
273.323
273.562
273.424
273.102
273.131
273.518
273.56
273.124
273.034
273.437
273.592
273.342
273.085
273.218
273.563
273.534
273.105
273.054
273.513
273.622
273.318
273.095
273.23
273.557
273.538
273.144
273.095
273.52
273.615
273.25
273.08
273.317
273.596
273.501
273.127
273.122
273.545
273.614
273.19
273.072
273.422
273.63
273.407
273.085
273.19
273.605
273.606
273.132
273.061
273.516
273.657
273.337
273.071
273.232
273.616
273.583
273.125
273.075
273.542
273.653
273.275
273.064
273.299
273.635
273.526
273.092
273.095
273.585
273.662
273.194
273.045
273.361
273.64
273.481
273.087
273.121
273.586
273.639
273.149
273.034
273.431
273.653
273.404
273.053
273.151
273.6
273.616
273.111
273.019
273.475
273.646
273.321
273.029
273.186
273.594
273.553
273.065
273.01
273.515
273.635
273.164
272.965
273.255
273.601
273.427
272.97
272.989
273.513
273.587
273.011
272.881
273.259
273.548
273.268
272.865
272.923
273.419
273.45
272.857
272.757
273.172
273.417
272.994
272.678
272.785
273.243
273.179
272.601
272.531
272.921
273.13
272.571
272.376
272.459
272.84
272.693
272.165
272.134
272.344
272.56
271.889
271.744
271.791
272.088
271.903
271.193
271.166
271.344
271.657
270.485
270.249
270.306
270.78
270.122
268.929
268.897
269.269
269.695
267.118
266.719
266.949
267.934
265.599
262.998
261.961
261.107
257.849
241.072
188.606
58.0521
16.4887
4.11763
0.986129
0.233743
0.0552896
0.0130746
0.00309183
0.000731108
0.000172871
4.08736e-05
9.66385e-06
2.2848e-06
5.40183e-07
1.27713e-07
3.01972e-08
7.14257e-09
1.69114e-09
4.01352e-10
9.64722e-11
2.53237e-11
9.89431e-12
6.27054e-12
5.57954e-12
6.49614e-12
7.08766e-12
5.38769e-12
3.45146e-12
3.1104e-12
1.11555e-12
1.82432e-12
2.84395e-12
3.32889e-12
5.03064e-12
4.13714e-12
4.77662e-12
4.77129e-12
4.51017e-12
5.31486e-12
4.06075e-12
3.69837e-12
4.84768e-12
5.12834e-12
5.82645e-12
7.21556e-12
6.21014e-12
5.47828e-12
6.99529e-12
8.13571e-12
8.09131e-12
7.89058e-12
7.6259e-12
7.31148e-12
8.19256e-12
4.70557e-12
3.52784e-12
2.37144e-12
8.15348e-13
2.03748e-12
9.62785e-13
2.47979e-12
8.84626e-13
2.39631e-12
3.79075e-12
3.29337e-12
3.10507e-12
3.59535e-12
5.37526e-12
4.39293e-12
4.6434e-12
3.12994e-12
3.60423e-12
4.33431e-12
4.71445e-12
4.83169e-12
5.31664e-12
3.49409e-12
4.62208e-12
5.34861e-12
4.60076e-12
3.43192e-12
3.70548e-12
3.72502e-12
3.96838e-12
2.67875e-12
5.1763e-12
6.58673e-12
5.23137e-12
3.76765e-12
2.12985e-12
3.80851e-12
4.09628e-12
5.55112e-12
5.44986e-12
7.48024e-12
7.70228e-12
8.19078e-12
8.80185e-12
8.67395e-12
1.09672e-11
1.31521e-11
1.5735e-11
1.64757e-11
1.83213e-11
2.02558e-11
2.11067e-11
2.24638e-11
2.07478e-11
2.21902e-11
2.35438e-11
2.27018e-11
2.14246e-11
2.1835e-11
2.0254e-11
1.89733e-11
1.89377e-11
2.04086e-11
1.94547e-11
2.03819e-11
2.06946e-11
1.9865e-11
1.83977e-11
1.94884e-11
1.78275e-11
1.80389e-11
1.78115e-11
1.77796e-11
1.66125e-11
1.74438e-11
1.77973e-11
1.83551e-11
1.65326e-11
1.76854e-11
1.78701e-11
1.67635e-11
1.53833e-11
1.53459e-11
1.56604e-11
1.69873e-11
1.87903e-11
1.81561e-11
1.74953e-11
1.92166e-11
1.96749e-11
1.98206e-11
2.17568e-11
2.13536e-11
2.04636e-11
1.87779e-11
1.84812e-11
1.91847e-11
1.78453e-11
1.84102e-11
1.85221e-11
2.0183e-11
2.0572e-11
2.24887e-11
2.34444e-11
2.51568e-11
2.58904e-11
2.73737e-11
2.78177e-11
2.8562e-11
2.68532e-11
2.65565e-11
2.70521e-11
2.84803e-11
2.88463e-11
2.86793e-11
2.66898e-11
2.6473e-11
2.64286e-11
2.64322e-11
2.47553e-11
2.52385e-11
2.52633e-11
2.60414e-11
2.68141e-11
2.71481e-11
2.82743e-11
2.73435e-11
2.75442e-11
2.74341e-11
2.9269e-11
3.12355e-11
2.96012e-11
2.9738e-11
2.87876e-11
2.80327e-11
2.63825e-11
2.61355e-11
2.54623e-11
2.47056e-11
2.52012e-11
2.66329e-11
2.6894e-11
2.47233e-11
2.44729e-11
2.3233e-11
2.40448e-11
2.33307e-11
2.39471e-11
2.4114e-11
2.33982e-11
2.39204e-11
2.35616e-11
2.15579e-11
2.07656e-11
)
;

boundaryField
{
    sides
    {
        type            calculated;
        value           nonuniform List<scalar> 2(2.0993e-11 4.03843e-11);
    }
    empty
    {
        type            empty;
        value           nonuniform 0();
    }
}


// ************************************************************************* //
