/*--------------------------------*- C++ -*----------------------------------*\
| =========                 |                                                 |
| \\      /  F ield         | OpenFOAM: The Open Source CFD Toolbox           |
|  \\    /   O peration     | Version:  4.1                                   |
|   \\  /    A nd           | Web:      www.OpenFOAM.org                      |
|    \\/     M anipulation  |                                                 |
\*---------------------------------------------------------------------------*/
FoamFile
{
    version     2.0;
    format      ascii;
    class       volScalarField;
    location    "0.0054";
    object      T;
}
// * * * * * * * * * * * * * * * * * * * * * * * * * * * * * * * * * * * * * //

dimensions      [0 0 0 1 0 0 0];

internalField   nonuniform List<scalar> 
1000
(
400
400
400
400
400
400
400
400
400
400
400
400
400
400
400
400
400
400
400
400
400
400
400
400
400
400
400
400
400
400
400
400
400
400
400
400
400
400
400
400
400
400
400
400
400
400
400
400
400
400
400
400
400
400
400
400
400
400
400
400
400
400
400
400
400
400
400
400
400
400
400
400
400
400
400
400
400
400
400
400
400
400
400
400
400
400
400
400
400
400
400
400
400
400
400
400
400
400
400
400
400
400
400
400
400
400
400
400
400
400
400
400
400
400
400
400
400
400
400
400
400
400
400
400
400
400
400
400
400
400
400
400
400
400
400
400
400
400
400
400
400
400
400
400
400
400
400
400
400
400
400
400
400
400
400
400
400
400
400
400
400
400
400
400
400
400
400
400
400
400
400
400
400
400
400
400
400
400
400
400
400
400
400
400
400
400
400
400
400
400
400
400
400
400
400
400
400
400
400
400
400
400
400
400
400
400
400
400
400
400
400
400
400
400
400
400
400
400
400
400
400
400
400
400
400
400
400
400
400
400
400
400
400
400
400
400
400
400
400
400
400
400
400
400
400
400
400
400
400
400
400
400
400
400
400
400
400
400
399.999
399.999
399.998
399.997
399.995
399.992
399.987
399.98
399.97
399.955
399.933
399.903
399.86
399.802
399.723
399.62
399.487
399.32
399.115
398.87
398.587
398.271
397.926
397.555
397.16
396.744
396.31
395.858
395.393
394.914
394.425
393.926
393.419
392.905
392.385
391.859
391.328
390.794
390.255
389.714
389.169
388.622
388.073
387.521
386.968
386.413
385.857
385.299
384.74
384.18
383.619
383.057
382.495
381.931
381.367
380.803
380.238
379.672
379.107
378.54
377.974
377.407
376.84
376.273
375.706
375.139
374.571
374.004
373.437
372.869
372.302
371.735
371.168
370.601
370.034
369.468
368.902
368.336
367.77
367.204
366.639
366.074
365.51
364.946
364.382
363.819
363.256
362.693
362.131
361.57
361.009
360.449
359.889
359.33
358.771
358.213
357.656
357.099
356.544
355.989
355.434
354.881
354.328
353.776
353.225
352.675
352.126
351.578
351.031
350.485
349.94
349.396
348.854
348.312
347.772
347.234
346.696
346.16
345.626
345.093
344.562
344.033
343.505
342.98
342.456
341.934
341.415
340.897
340.382
339.87
339.36
338.854
338.35
337.849
337.351
336.857
336.367
335.88
335.399
334.918
334.45
333.973
333.527
333.041
332.636
332.123
331.78
331.229
330.947
330.389
330.11
329.634
329.265
328.947
328.477
328.25
327.828
327.518
327.279
326.879
326.693
326.417
326.119
325.989
325.729
325.533
325.434
325.229
325.11
325.043
324.906
324.837
324.804
324.731
324.693
324.684
324.66
324.64
324.641
324.641
324.639
324.639
324.64
324.643
324.646
324.648
324.654
324.663
324.667
324.673
324.679
324.681
324.684
324.688
324.689
324.69
324.692
324.693
324.694
324.695
324.697
324.698
324.698
324.7
324.701
324.702
324.703
324.704
324.705
324.706
324.708
324.709
324.71
324.711
324.713
324.713
324.715
324.716
324.717
324.718
324.72
324.722
324.722
324.724
324.725
324.727
324.728
324.729
324.731
324.732
324.733
324.735
324.737
324.738
324.74
324.742
324.743
324.744
324.746
324.748
324.749
324.751
324.753
324.755
324.757
324.759
324.76
324.762
324.765
324.766
324.768
324.77
324.773
324.775
324.776
324.778
324.781
324.784
324.785
324.787
324.791
324.794
324.795
324.797
324.8
324.804
324.806
324.808
324.81
324.815
324.818
324.82
324.822
324.826
324.83
324.833
324.835
324.838
324.843
324.848
324.852
324.853
324.856
324.861
324.867
324.872
324.875
324.877
324.882
324.889
324.896
324.901
324.904
324.906
324.911
324.92
324.93
324.937
324.941
324.944
324.948
324.957
324.969
324.981
324.989
324.993
324.996
325.002
325.015
325.032
325.048
325.059
325.064
325.068
325.074
325.092
325.117
325.14
325.156
325.164
325.169
325.177
325.199
325.236
325.276
325.309
325.33
325.341
325.347
325.357
325.382
325.456
325.557
325.65
325.721
325.767
325.787
325.79
325.773
325.686
325.561
325.479
325.45
325.575
327.048
334.59
353.538
375.118
396.127
415.479
432.42
446.61
457.986
466.716
473.15
477.772
481.021
483.205
484.598
485.478
486.054
486.428
486.622
486.693
486.75
486.827
486.856
486.821
486.793
486.818
486.851
486.83
486.777
486.779
486.831
486.835
486.779
486.759
486.8
486.825
486.79
486.746
486.76
486.811
486.811
486.753
486.736
486.777
486.8
486.769
486.729
486.742
486.788
486.784
486.727
486.717
486.767
486.784
486.742
486.708
486.731
486.772
486.761
486.704
486.702
486.759
486.769
486.713
486.689
486.73
486.765
486.737
486.685
486.693
486.753
486.756
486.694
486.676
486.723
486.754
486.721
486.674
486.687
486.744
486.743
486.68
486.667
486.721
486.745
486.7
486.66
486.686
486.738
486.728
486.663
486.657
486.716
486.734
486.683
486.65
486.682
486.728
486.711
486.651
486.651
486.713
486.724
486.665
486.638
486.68
486.72
486.693
486.638
486.644
486.706
486.713
486.649
486.629
486.677
486.71
486.673
486.624
486.64
486.698
486.694
486.625
486.614
486.674
486.698
486.64
486.6
486.632
486.684
486.664
486.593
486.589
486.652
486.668
486.601
486.569
486.605
486.651
486.618
486.552
486.553
486.615
486.622
486.541
486.516
486.553
486.592
486.539
486.481
486.483
486.536
486.532
486.443
486.424
486.447
486.477
486.409
486.359
486.356
486.384
486.364
486.266
486.246
486.246
486.266
486.17
486.094
486.074
486.092
486.06
485.884
485.841
485.857
485.893
485.654
485.507
485.495
485.521
485.366
485.034
484.975
484.906
484.888
484.375
483.914
483.381
482.419
480.641
475.072
441.299
412.259
403.223
400.784
400.186
400.044
400.01
400.002
400.001
400
400
400
400
400
400
400
400
400
400
400
400
400
400
400
400
400
400
400
400
400
400
400
400
400
400
400
400
400
400
400
400
400
400
400
400
400
400
400
400
400
400
400
400
400
400
400
400
400
400
400
400
400
400
400
400
400
400
400
400
400
400
400
400
400
400
400
400
400
400
400
400
400
400
400
400
400
400
400
400
400
400
400
400
400
400
400
400
400
400
400
400
400
400
400
400
400
400
400
400
400
400
400
400
400
400
400
400
400
400
400
400
400
400
400
400
400
400
400
400
400
400
400
400
400
400
400
400
400
400
400
400
400
400
400
400
400
400
400
400
400
400
400
400
400
400
400
400
400
400
400
400
400
400
400
400
400
400
400
400
400
400
400
400
400
400
400
400
400
400
400
400
400
400
400
400
400
400
400
400
400
400
400
400
400
400
400
400
400
400
400
400
400
400
400
400
400
400
400
400
)
;

boundaryField
{
    sides
    {
        type            zeroGradient;
    }
    empty
    {
        type            empty;
    }
}


// ************************************************************************* //
