/*--------------------------------*- C++ -*----------------------------------*\
| =========                 |                                                 |
| \\      /  F ield         | OpenFOAM: The Open Source CFD Toolbox           |
|  \\    /   O peration     | Version:  4.1                                   |
|   \\  /    A nd           | Web:      www.OpenFOAM.org                      |
|    \\/     M anipulation  |                                                 |
\*---------------------------------------------------------------------------*/
FoamFile
{
    version     2.0;
    format      ascii;
    class       volVectorField;
    location    "0.0054";
    object      U;
}
// * * * * * * * * * * * * * * * * * * * * * * * * * * * * * * * * * * * * * //

dimensions      [0 1 -1 0 0 0 0];

internalField   nonuniform List<vector> 
1000
(
(-1.16134e-11 0 0)
(-1.09242e-11 0 0)
(-1.33123e-11 0 0)
(-1.0433e-11 0 0)
(-1.0893e-11 0 0)
(-1.06402e-11 0 0)
(-1.17425e-11 0 0)
(-1.31135e-11 0 0)
(-1.3542e-11 0 0)
(-1.58048e-11 0 0)
(-1.22887e-11 0 0)
(-1.08982e-11 0 0)
(-8.50275e-12 0 0)
(-9.09209e-12 0 0)
(-5.86834e-12 0 0)
(-7.25997e-12 0 0)
(-2.0147e-12 0 0)
(-4.09114e-12 0 0)
(8.3514e-13 0 0)
(-4.01519e-12 0 0)
(-2.78068e-13 0 0)
(-4.75522e-12 0 0)
(-5.62984e-12 0 0)
(-8.64225e-12 0 0)
(-5.63808e-12 0 0)
(-8.03403e-12 0 0)
(-8.08117e-12 0 0)
(-1.02941e-11 0 0)
(-1.26476e-11 0 0)
(-1.29923e-11 0 0)
(-1.6306e-11 0 0)
(-1.77047e-11 0 0)
(-2.0143e-11 0 0)
(-2.02856e-11 0 0)
(-2.26972e-11 0 0)
(-1.74723e-11 0 0)
(-2.17484e-11 0 0)
(-2.07913e-11 0 0)
(-2.4951e-11 0 0)
(-2.08178e-11 0 0)
(-2.20143e-11 0 0)
(-1.85521e-11 0 0)
(-2.12014e-11 0 0)
(-1.6833e-11 0 0)
(-1.85489e-11 0 0)
(-1.59789e-11 0 0)
(-1.87498e-11 0 0)
(-1.70116e-11 0 0)
(-2.05464e-11 0 0)
(-1.78053e-11 0 0)
(-1.8493e-11 0 0)
(-1.57703e-11 0 0)
(-1.77722e-11 0 0)
(-1.94447e-11 0 0)
(-1.76341e-11 0 0)
(-1.70494e-11 0 0)
(-1.79111e-11 0 0)
(-1.85972e-11 0 0)
(-1.577e-11 0 0)
(-1.76259e-11 0 0)
(-1.34301e-11 0 0)
(-1.48428e-11 0 0)
(-1.18407e-11 0 0)
(-1.30106e-11 0 0)
(-8.4994e-12 0 0)
(-1.04334e-11 0 0)
(-6.80023e-12 0 0)
(-7.19941e-12 0 0)
(-3.11401e-12 0 0)
(-6.18749e-12 0 0)
(-1.89944e-12 0 0)
(-8.07685e-12 0 0)
(-5.97747e-12 0 0)
(-9.67076e-12 0 0)
(-4.83673e-12 0 0)
(-9.76731e-12 0 0)
(-7.55421e-12 0 0)
(-1.05715e-11 0 0)
(-9.25734e-12 0 0)
(-7.67791e-12 0 0)
(-6.04419e-12 0 0)
(-5.32678e-12 0 0)
(-2.86197e-12 0 0)
(-3.96159e-12 0 0)
(-3.08782e-12 0 0)
(1.97326e-12 0 0)
(-3.17504e-12 0 0)
(-2.89602e-13 0 0)
(-3.76824e-12 0 0)
(-4.6275e-13 0 0)
(-3.59572e-12 0 0)
(-1.28965e-12 0 0)
(-5.08812e-12 0 0)
(1.81387e-12 0 0)
(-1.53056e-13 0 0)
(3.83222e-12 0 0)
(-1.3002e-12 0 0)
(1.29248e-12 0 0)
(2.7356e-12 0 0)
(5.37737e-12 0 0)
(6.17668e-12 0 0)
(4.11623e-12 0 0)
(7.2104e-12 0 0)
(6.95383e-12 0 0)
(1.05555e-11 0 0)
(8.64284e-12 0 0)
(8.63004e-12 0 0)
(1.00315e-11 0 0)
(8.09187e-12 0 0)
(1.11952e-11 0 0)
(1.10049e-11 0 0)
(1.18509e-11 0 0)
(1.24014e-11 0 0)
(1.00072e-11 0 0)
(1.13318e-11 0 0)
(1.22384e-11 0 0)
(1.33023e-11 0 0)
(1.07331e-11 0 0)
(1.12205e-11 0 0)
(1.06045e-11 0 0)
(1.10311e-11 0 0)
(1.2925e-11 0 0)
(1.17547e-11 0 0)
(1.16244e-11 0 0)
(1.23882e-11 0 0)
(1.41015e-11 0 0)
(1.4546e-11 0 0)
(1.59586e-11 0 0)
(1.23676e-11 0 0)
(1.54504e-11 0 0)
(1.62985e-11 0 0)
(1.66102e-11 0 0)
(1.84671e-11 0 0)
(1.82412e-11 0 0)
(1.95601e-11 0 0)
(1.98048e-11 0 0)
(1.781e-11 0 0)
(1.67381e-11 0 0)
(1.62787e-11 0 0)
(1.82546e-11 0 0)
(1.73064e-11 0 0)
(1.58706e-11 0 0)
(1.55934e-11 0 0)
(1.81862e-11 0 0)
(1.71881e-11 0 0)
(1.74123e-11 0 0)
(1.89304e-11 0 0)
(1.56689e-11 0 0)
(1.69708e-11 0 0)
(1.5193e-11 0 0)
(1.5325e-11 0 0)
(1.20344e-11 0 0)
(1.37744e-11 0 0)
(1.02259e-11 0 0)
(1.47595e-11 0 0)
(1.39195e-11 0 0)
(1.29725e-11 0 0)
(1.45776e-11 0 0)
(1.35915e-11 0 0)
(1.67474e-11 0 0)
(1.86287e-11 0 0)
(1.91835e-11 0 0)
(1.97709e-11 0 0)
(2.10963e-11 0 0)
(2.22125e-11 0 0)
(2.3257e-11 0 0)
(2.23922e-11 0 0)
(2.15268e-11 0 0)
(2.0708e-11 0 0)
(2.09512e-11 0 0)
(2.08786e-11 0 0)
(2.11148e-11 0 0)
(2.05676e-11 0 0)
(2.08294e-11 0 0)
(1.83109e-11 0 0)
(1.86755e-11 0 0)
(1.70192e-11 0 0)
(1.84859e-11 0 0)
(1.43111e-11 0 0)
(1.46399e-11 0 0)
(1.1156e-11 0 0)
(1.24209e-11 0 0)
(1.13597e-11 0 0)
(1.41264e-11 0 0)
(1.55735e-11 0 0)
(1.75143e-11 0 0)
(1.80075e-11 0 0)
(1.91396e-11 0 0)
(1.58849e-11 0 0)
(1.56124e-11 0 0)
(1.79674e-11 0 0)
(1.49232e-11 0 0)
(1.8697e-11 0 0)
(1.3309e-11 0 0)
(1.48553e-11 0 0)
(1.06557e-11 0 0)
(1.15682e-11 0 0)
(9.11992e-12 0 0)
(1.11573e-11 0 0)
(6.56681e-12 0 0)
(1.09173e-11 0 0)
(9.7586e-12 0 0)
(1.34145e-11 0 0)
(1.12769e-11 0 0)
(1.1835e-11 0 0)
(8.96641e-12 0 0)
(9.56013e-12 0 0)
(8.23016e-12 0 0)
(1.0193e-11 0 0)
(1.23782e-11 0 0)
(1.17971e-11 0 0)
(1.23576e-11 0 0)
(1.13864e-11 0 0)
(1.11682e-11 0 0)
(9.78597e-12 0 0)
(1.21696e-11 0 0)
(7.9828e-12 0 0)
(1.47195e-11 0 0)
(1.06304e-11 0 0)
(1.67125e-11 0 0)
(1.41731e-11 0 0)
(1.86867e-11 0 0)
(1.31531e-11 0 0)
(1.56695e-11 0 0)
(1.19608e-11 0 0)
(1.63736e-11 0 0)
(1.12704e-11 0 0)
(1.69139e-11 0 0)
(1.85101e-11 0 0)
(2.96555e-11 0 0)
(4.98793e-11 0 0)
(9.79766e-11 0 0)
(1.96498e-10 0 0)
(3.95492e-10 0 0)
(8.04791e-10 0 0)
(1.61988e-09 0 0)
(3.24968e-09 0 0)
(6.46128e-09 0 0)
(1.27673e-08 0 0)
(2.50257e-08 0 0)
(4.87021e-08 0 0)
(9.40455e-08 0 0)
(1.80234e-07 0 0)
(3.42727e-07 0 0)
(6.46639e-07 0 0)
(1.21036e-06 0 0)
(2.24731e-06 0 0)
(4.13858e-06 0 0)
(7.55824e-06 0 0)
(1.36871e-05 0 0)
(2.4573e-05 0 0)
(4.37317e-05 0 0)
(7.71355e-05 0 0)
(0.000134821 0 0)
(0.000233468 0 0)
(0.00040048 0 0)
(0.000680347 0 0)
(0.00114441 0 0)
(0.00190562 0 0)
(0.0031404 0 0)
(0.00512057 0 0)
(0.00825871 0 0)
(0.0131715 0 0)
(0.0207659 0 0)
(0.0323523 0 0)
(0.0497893 0 0)
(0.0756604 0 0)
(0.113479 0 0)
(0.167911 0 0)
(0.244987 0 0)
(0.352276 0 0)
(0.498956 0 0)
(0.695716 0 0)
(0.954403 0 0)
(1.28731 0 0)
(1.70597 0 0)
(2.21923 0 0)
(2.83024 0 0)
(3.53436 0 0)
(4.32198 0 0)
(5.18367 0 0)
(6.11189 0 0)
(7.10014 0 0)
(8.14231 0 0)
(9.23251 0 0)
(10.3651 0 0)
(11.535 0 0)
(12.7376 0 0)
(13.9686 0 0)
(15.2244 0 0)
(16.502 0 0)
(17.7986 0 0)
(19.112 0 0)
(20.4401 0 0)
(21.7813 0 0)
(23.1342 0 0)
(24.4974 0 0)
(25.8701 0 0)
(27.2511 0 0)
(28.6398 0 0)
(30.0355 0 0)
(31.4375 0 0)
(32.8453 0 0)
(34.2584 0 0)
(35.6764 0 0)
(37.0989 0 0)
(38.5256 0 0)
(39.9562 0 0)
(41.3904 0 0)
(42.828 0 0)
(44.2687 0 0)
(45.7123 0 0)
(47.1587 0 0)
(48.6076 0 0)
(50.0589 0 0)
(51.5125 0 0)
(52.9682 0 0)
(54.4259 0 0)
(55.8855 0 0)
(57.3468 0 0)
(58.8098 0 0)
(60.2743 0 0)
(61.7403 0 0)
(63.2076 0 0)
(64.6762 0 0)
(66.146 0 0)
(67.6169 0 0)
(69.0888 0 0)
(70.5617 0 0)
(72.0355 0 0)
(73.5101 0 0)
(74.9855 0 0)
(76.4615 0 0)
(77.9382 0 0)
(79.4155 0 0)
(80.8932 0 0)
(82.3714 0 0)
(83.85 0 0)
(85.3289 0 0)
(86.808 0 0)
(88.2874 0 0)
(89.7669 0 0)
(91.2466 0 0)
(92.7262 0 0)
(94.2059 0 0)
(95.6854 0 0)
(97.1649 0 0)
(98.6441 0 0)
(100.123 0 0)
(101.602 0 0)
(103.08 0 0)
(104.558 0 0)
(106.035 0 0)
(107.512 0 0)
(108.988 0 0)
(110.464 0 0)
(111.939 0 0)
(113.412 0 0)
(114.885 0 0)
(116.357 0 0)
(117.828 0 0)
(119.298 0 0)
(120.767 0 0)
(122.234 0 0)
(123.7 0 0)
(125.164 0 0)
(126.627 0 0)
(128.088 0 0)
(129.547 0 0)
(131.004 0 0)
(132.459 0 0)
(133.912 0 0)
(135.363 0 0)
(136.811 0 0)
(138.256 0 0)
(139.699 0 0)
(141.139 0 0)
(142.575 0 0)
(144.008 0 0)
(145.438 0 0)
(146.864 0 0)
(148.286 0 0)
(149.704 0 0)
(151.117 0 0)
(152.526 0 0)
(153.929 0 0)
(155.327 0 0)
(156.719 0 0)
(158.105 0 0)
(159.485 0 0)
(160.857 0 0)
(162.222 0 0)
(163.58 0 0)
(164.928 0 0)
(166.268 0 0)
(167.598 0 0)
(168.918 0 0)
(170.226 0 0)
(171.523 0 0)
(172.807 0 0)
(174.077 0 0)
(175.332 0 0)
(176.572 0 0)
(177.795 0 0)
(179 0 0)
(180.185 0 0)
(181.349 0 0)
(182.491 0 0)
(183.608 0 0)
(184.7 0 0)
(185.763 0 0)
(186.798 0 0)
(187.8 0 0)
(188.768 0 0)
(189.7 0 0)
(190.593 0 0)
(191.446 0 0)
(192.256 0 0)
(193.02 0 0)
(193.738 0 0)
(194.406 0 0)
(195.024 0 0)
(195.59 0 0)
(196.103 0 0)
(196.564 0 0)
(196.972 0 0)
(197.328 0 0)
(197.634 0 0)
(197.893 0 0)
(198.107 0 0)
(198.281 0 0)
(198.417 0 0)
(198.521 0 0)
(198.596 0 0)
(198.649 0 0)
(198.682 0 0)
(198.701 0 0)
(198.708 0 0)
(198.71 0 0)
(198.711 0 0)
(198.71 0 0)
(198.708 0 0)
(198.703 0 0)
(198.693 0 0)
(198.678 0 0)
(198.661 0 0)
(198.644 0 0)
(198.631 0 0)
(198.62 0 0)
(198.611 0 0)
(198.604 0 0)
(198.6 0 0)
(198.596 0 0)
(198.594 0 0)
(198.592 0 0)
(198.591 0 0)
(198.59 0 0)
(198.589 0 0)
(198.589 0 0)
(198.588 0 0)
(198.587 0 0)
(198.587 0 0)
(198.586 0 0)
(198.585 0 0)
(198.584 0 0)
(198.584 0 0)
(198.583 0 0)
(198.582 0 0)
(198.582 0 0)
(198.581 0 0)
(198.581 0 0)
(198.58 0 0)
(198.579 0 0)
(198.579 0 0)
(198.578 0 0)
(198.578 0 0)
(198.577 0 0)
(198.577 0 0)
(198.576 0 0)
(198.575 0 0)
(198.575 0 0)
(198.574 0 0)
(198.574 0 0)
(198.573 0 0)
(198.572 0 0)
(198.572 0 0)
(198.572 0 0)
(198.571 0 0)
(198.571 0 0)
(198.57 0 0)
(198.569 0 0)
(198.569 0 0)
(198.568 0 0)
(198.568 0 0)
(198.567 0 0)
(198.567 0 0)
(198.566 0 0)
(198.566 0 0)
(198.565 0 0)
(198.565 0 0)
(198.564 0 0)
(198.564 0 0)
(198.563 0 0)
(198.563 0 0)
(198.562 0 0)
(198.562 0 0)
(198.561 0 0)
(198.561 0 0)
(198.56 0 0)
(198.56 0 0)
(198.559 0 0)
(198.559 0 0)
(198.558 0 0)
(198.558 0 0)
(198.557 0 0)
(198.557 0 0)
(198.556 0 0)
(198.556 0 0)
(198.555 0 0)
(198.555 0 0)
(198.555 0 0)
(198.554 0 0)
(198.554 0 0)
(198.554 0 0)
(198.553 0 0)
(198.553 0 0)
(198.553 0 0)
(198.552 0 0)
(198.552 0 0)
(198.552 0 0)
(198.552 0 0)
(198.551 0 0)
(198.551 0 0)
(198.551 0 0)
(198.551 0 0)
(198.55 0 0)
(198.55 0 0)
(198.55 0 0)
(198.55 0 0)
(198.55 0 0)
(198.549 0 0)
(198.549 0 0)
(198.549 0 0)
(198.549 0 0)
(198.549 0 0)
(198.549 0 0)
(198.549 0 0)
(198.548 0 0)
(198.548 0 0)
(198.548 0 0)
(198.548 0 0)
(198.548 0 0)
(198.547 0 0)
(198.547 0 0)
(198.547 0 0)
(198.547 0 0)
(198.547 0 0)
(198.546 0 0)
(198.546 0 0)
(198.546 0 0)
(198.546 0 0)
(198.546 0 0)
(198.545 0 0)
(198.545 0 0)
(198.545 0 0)
(198.544 0 0)
(198.544 0 0)
(198.544 0 0)
(198.543 0 0)
(198.543 0 0)
(198.543 0 0)
(198.542 0 0)
(198.542 0 0)
(198.542 0 0)
(198.541 0 0)
(198.541 0 0)
(198.54 0 0)
(198.54 0 0)
(198.539 0 0)
(198.539 0 0)
(198.539 0 0)
(198.539 0 0)
(198.538 0 0)
(198.538 0 0)
(198.537 0 0)
(198.537 0 0)
(198.537 0 0)
(198.537 0 0)
(198.538 0 0)
(198.538 0 0)
(198.537 0 0)
(198.537 0 0)
(198.537 0 0)
(198.537 0 0)
(198.538 0 0)
(198.538 0 0)
(198.539 0 0)
(198.541 0 0)
(198.546 0 0)
(198.554 0 0)
(198.57 0 0)
(198.621 0 0)
(198.743 0 0)
(198.847 0 0)
(198.78 0 0)
(198.634 0 0)
(198.548 0 0)
(198.496 0 0)
(198.466 0 0)
(198.477 0 0)
(198.511 0 0)
(198.525 0 0)
(198.511 0 0)
(198.509 0 0)
(198.535 0 0)
(198.554 0 0)
(198.538 0 0)
(198.514 0 0)
(198.524 0 0)
(198.551 0 0)
(198.549 0 0)
(198.521 0 0)
(198.514 0 0)
(198.543 0 0)
(198.559 0 0)
(198.533 0 0)
(198.507 0 0)
(198.524 0 0)
(198.553 0 0)
(198.539 0 0)
(198.503 0 0)
(198.506 0 0)
(198.541 0 0)
(198.55 0 0)
(198.519 0 0)
(198.5 0 0)
(198.526 0 0)
(198.553 0 0)
(198.531 0 0)
(198.497 0 0)
(198.509 0 0)
(198.546 0 0)
(198.55 0 0)
(198.516 0 0)
(198.498 0 0)
(198.524 0 0)
(198.55 0 0)
(198.531 0 0)
(198.499 0 0)
(198.51 0 0)
(198.544 0 0)
(198.542 0 0)
(198.508 0 0)
(198.498 0 0)
(198.529 0 0)
(198.55 0 0)
(198.525 0 0)
(198.495 0 0)
(198.511 0 0)
(198.544 0 0)
(198.537 0 0)
(198.502 0 0)
(198.499 0 0)
(198.534 0 0)
(198.547 0 0)
(198.514 0 0)
(198.49 0 0)
(198.517 0 0)
(198.549 0 0)
(198.53 0 0)
(198.492 0 0)
(198.499 0 0)
(198.537 0 0)
(198.543 0 0)
(198.507 0 0)
(198.487 0 0)
(198.517 0 0)
(198.547 0 0)
(198.524 0 0)
(198.488 0 0)
(198.499 0 0)
(198.536 0 0)
(198.537 0 0)
(198.5 0 0)
(198.485 0 0)
(198.519 0 0)
(198.543 0 0)
(198.514 0 0)
(198.48 0 0)
(198.499 0 0)
(198.537 0 0)
(198.53 0 0)
(198.489 0 0)
(198.481 0 0)
(198.517 0 0)
(198.537 0 0)
(198.505 0 0)
(198.474 0 0)
(198.496 0 0)
(198.531 0 0)
(198.519 0 0)
(198.478 0 0)
(198.476 0 0)
(198.514 0 0)
(198.527 0 0)
(198.49 0 0)
(198.462 0 0)
(198.489 0 0)
(198.523 0 0)
(198.503 0 0)
(198.461 0 0)
(198.465 0 0)
(198.503 0 0)
(198.51 0 0)
(198.469 0 0)
(198.446 0 0)
(198.475 0 0)
(198.503 0 0)
(198.476 0 0)
(198.435 0 0)
(198.444 0 0)
(198.482 0 0)
(198.476 0 0)
(198.43 0 0)
(198.414 0 0)
(198.448 0 0)
(198.466 0 0)
(198.426 0 0)
(198.385 0 0)
(198.402 0 0)
(198.437 0 0)
(198.417 0 0)
(198.363 0 0)
(198.351 0 0)
(198.384 0 0)
(198.392 0 0)
(198.342 0 0)
(198.3 0 0)
(198.316 0 0)
(198.342 0 0)
(198.308 0 0)
(198.248 0 0)
(198.235 0 0)
(198.261 0 0)
(198.252 0 0)
(198.189 0 0)
(198.142 0 0)
(198.152 0 0)
(198.161 0 0)
(198.108 0 0)
(198.037 0 0)
(198.016 0 0)
(198.025 0 0)
(197.993 0 0)
(197.912 0 0)
(197.854 0 0)
(197.842 0 0)
(197.823 0 0)
(197.746 0 0)
(197.657 0 0)
(197.61 0 0)
(197.583 0 0)
(197.513 0 0)
(197.399 0 0)
(197.307 0 0)
(197.252 0 0)
(197.188 0 0)
(197.057 0 0)
(196.908 0 0)
(196.807 0 0)
(196.73 0 0)
(196.586 0 0)
(196.369 0 0)
(196.187 0 0)
(196.061 0 0)
(195.902 0 0)
(195.614 0 0)
(195.306 0 0)
(195.09 0 0)
(194.896 0 0)
(194.533 0 0)
(194.045 0 0)
(193.645 0 0)
(193.303 0 0)
(192.851 0 0)
(192.132 0 0)
(191.087 0 0)
(189.497 0 0)
(186.687 0 0)
(180.018 0 0)
(157.483 0 0)
(97.0959 0 0)
(32.5662 0 0)
(8.58074 0 0)
(2.09903 0 0)
(0.5005 0 0)
(0.118546 0 0)
(0.0280397 0 0)
(0.00663113 0 0)
(0.00156806 0 0)
(0.000370779 0 0)
(8.76681e-05 0 0)
(2.07278e-05 0 0)
(4.90065e-06 0 0)
(1.15864e-06 0 0)
(2.73929e-07 0 0)
(6.47675e-08 0 0)
(1.53153e-08 0 0)
(3.62604e-09 0 0)
(8.58578e-10 0 0)
(2.05084e-10 0 0)
(5.0498e-11 0 0)
(1.62075e-11 0 0)
(8.68881e-12 0 0)
(6.84583e-12 0 0)
(6.18919e-12 0 0)
(9.14098e-12 0 0)
(6.96795e-12 0 0)
(4.76732e-12 0 0)
(3.96413e-12 0 0)
(2.48236e-12 0 0)
(3.92192e-13 0 0)
(3.99452e-12 0 0)
(2.10866e-12 0 0)
(5.73365e-12 0 0)
(5.42874e-12 0 0)
(4.09743e-12 0 0)
(7.43388e-12 0 0)
(3.74974e-12 0 0)
(6.30977e-12 0 0)
(5.68334e-12 0 0)
(3.46796e-12 0 0)
(5.16994e-12 0 0)
(5.99371e-12 0 0)
(6.21909e-12 0 0)
(7.5989e-12 0 0)
(8.07866e-12 0 0)
(6.38901e-12 0 0)
(6.954e-12 0 0)
(9.26937e-12 0 0)
(9.12636e-12 0 0)
(9.82551e-12 0 0)
(8.43973e-12 0 0)
(8.83746e-12 0 0)
(8.94289e-12 0 0)
(8.33447e-12 0 0)
(3.40649e-12 0 0)
(5.44721e-12 0 0)
(-8.83096e-13 0 0)
(3.33633e-12 0 0)
(5.2146e-13 0 0)
(2.19921e-12 0 0)
(2.5581e-12 0 0)
(1.18832e-13 0 0)
(4.44784e-12 0 0)
(4.81845e-12 0 0)
(3.18952e-12 0 0)
(3.55464e-12 0 0)
(5.06907e-12 0 0)
(6.64043e-12 0 0)
(4.43362e-12 0 0)
(5.14448e-12 0 0)
(2.84224e-12 0 0)
(4.95632e-12 0 0)
(5.33954e-12 0 0)
(5.01463e-12 0 0)
(6.89596e-12 0 0)
(4.2098e-12 0 0)
(4.67748e-12 0 0)
(5.61409e-12 0 0)
(6.95785e-12 0 0)
(3.10093e-12 0 0)
(5.25982e-12 0 0)
(3.22663e-12 0 0)
(5.25087e-12 0 0)
(3.75928e-12 0 0)
(2.93185e-12 0 0)
(8.06142e-12 0 0)
(6.73507e-12 0 0)
(5.92135e-12 0 0)
(2.10417e-12 0 0)
(3.32651e-12 0 0)
(4.8078e-12 0 0)
(5.32479e-12 0 0)
(6.68937e-12 0 0)
(6.50749e-12 0 0)
(1.00983e-11 0 0)
(8.11431e-12 0 0)
(1.02026e-11 0 0)
(9.81593e-12 0 0)
(1.0865e-11 0 0)
(1.42236e-11 0 0)
(1.60924e-11 0 0)
(1.90708e-11 0 0)
(1.95897e-11 0 0)
(2.27626e-11 0 0)
(2.30212e-11 0 0)
(2.61418e-11 0 0)
(2.42848e-11 0 0)
(2.48772e-11 0 0)
(2.62752e-11 0 0)
(2.70715e-11 0 0)
(2.51849e-11 0 0)
(2.51381e-11 0 0)
(2.36929e-11 0 0)
(2.34198e-11 0 0)
(2.0611e-11 0 0)
(2.31716e-11 0 0)
(2.27709e-11 0 0)
(2.30747e-11 0 0)
(2.35761e-11 0 0)
(2.40731e-11 0 0)
(2.11297e-11 0 0)
(2.20991e-11 0 0)
(2.19395e-11 0 0)
(1.99974e-11 0 0)
(2.11896e-11 0 0)
(2.02585e-11 0 0)
(1.98808e-11 0 0)
(1.8993e-11 0 0)
(2.0505e-11 0 0)
(2.11507e-11 0 0)
(2.03748e-11 0 0)
(1.83944e-11 0 0)
(2.1545e-11 0 0)
(1.92119e-11 0 0)
(1.92469e-11 0 0)
(1.68525e-11 0 0)
(1.85688e-11 0 0)
(1.76036e-11 0 0)
(2.18717e-11 0 0)
(2.09154e-11 0 0)
(2.07831e-11 0 0)
(2.02176e-11 0 0)
(2.28452e-11 0 0)
(2.32082e-11 0 0)
(2.3504e-11 0 0)
(2.51293e-11 0 0)
(2.46746e-11 0 0)
(2.18565e-11 0 0)
(2.07415e-11 0 0)
(2.27688e-11 0 0)
(2.13704e-11 0 0)
(1.97593e-11 0 0)
(2.18909e-11 0 0)
(2.15383e-11 0 0)
(2.44483e-11 0 0)
(2.39066e-11 0 0)
(2.6638e-11 0 0)
(2.71953e-11 0 0)
(3.05179e-11 0 0)
(3.00565e-11 0 0)
(3.17797e-11 0 0)
(3.27451e-11 0 0)
(3.21048e-11 0 0)
(3.05598e-11 0 0)
(3.09952e-11 0 0)
(3.13951e-11 0 0)
(3.32886e-11 0 0)
(3.34994e-11 0 0)
(3.1813e-11 0 0)
(3.05481e-11 0 0)
(2.98616e-11 0 0)
(3.11033e-11 0 0)
(2.90082e-11 0 0)
(2.88011e-11 0 0)
(2.85354e-11 0 0)
(3.03216e-11 0 0)
(2.98535e-11 0 0)
(3.13235e-11 0 0)
(3.093e-11 0 0)
(3.33207e-11 0 0)
(3.10212e-11 0 0)
(3.22192e-11 0 0)
(3.1573e-11 0 0)
(3.58651e-11 0 0)
(3.47245e-11 0 0)
(3.41083e-11 0 0)
(3.3851e-11 0 0)
(3.25256e-11 0 0)
(3.10997e-11 0 0)
(3.02697e-11 0 0)
(2.97002e-11 0 0)
(2.83437e-11 0 0)
(2.91586e-11 0 0)
(2.96997e-11 0 0)
(3.10862e-11 0 0)
(2.94576e-11 0 0)
(2.86428e-11 0 0)
(2.70353e-11 0 0)
(2.73114e-11 0 0)
(2.67211e-11 0 0)
(2.85287e-11 0 0)
(2.60473e-11 0 0)
(2.88382e-11 0 0)
(2.57546e-11 0 0)
(2.93334e-11 0 0)
(2.37481e-11 0 0)
(2.54039e-11 0 0)
(2.41334e-11 0 0)
)
;

boundaryField
{
    sides
    {
        type            zeroGradient;
    }
    empty
    {
        type            empty;
    }
}


// ************************************************************************* //
