/*--------------------------------*- C++ -*----------------------------------*\
| =========                 |                                                 |
| \\      /  F ield         | OpenFOAM: The Open Source CFD Toolbox           |
|  \\    /   O peration     | Version:  4.1                                   |
|   \\  /    A nd           | Web:      www.OpenFOAM.org                      |
|    \\/     M anipulation  |                                                 |
\*---------------------------------------------------------------------------*/
FoamFile
{
    version     2.0;
    format      ascii;
    class       volScalarField;
    location    "0.0004";
    object      mag(U);
}
// * * * * * * * * * * * * * * * * * * * * * * * * * * * * * * * * * * * * * //

dimensions      [0 1 -1 0 0 0 0];

internalField   nonuniform List<scalar> 
1000
(
1.79255e-13
8.12068e-13
1.40157e-12
7.55152e-13
2.47834e-12
2.32095e-12
1.17378e-12
7.33473e-13
6.96657e-13
6.14537e-13
1.64277e-12
8.72471e-14
1.94249e-12
2.85335e-12
2.40147e-12
2.18048e-12
2.52861e-12
2.70612e-12
2.51378e-12
2.97898e-12
1.8091e-13
9.05875e-13
1.50565e-12
3.07952e-12
1.59583e-12
9.39412e-14
2.16356e-12
8.12271e-13
2.59902e-12
2.74451e-12
2.17537e-12
1.03328e-12
4.2371e-13
3.58367e-13
6.8319e-13
1.72483e-12
8.72483e-14
2.10493e-12
2.85e-12
2.40147e-12
2.18048e-12
2.52861e-12
2.70612e-12
2.51378e-12
2.97898e-12
1.8091e-13
9.05875e-13
1.50565e-12
3.07952e-12
1.59583e-12
9.39412e-14
2.16356e-12
8.12271e-13
2.59902e-12
2.74451e-12
2.17537e-12
1.03328e-12
4.2371e-13
3.58367e-13
6.8319e-13
1.72483e-12
8.72483e-14
2.10493e-12
2.85e-12
2.40147e-12
2.18048e-12
2.52861e-12
2.70612e-12
2.51378e-12
2.97898e-12
1.8091e-13
9.05875e-13
1.49728e-12
3.08287e-12
1.492e-12
4.1347e-13
1.71141e-12
1.4059e-13
1.13207e-12
3.11791e-12
6.63163e-13
1.79009e-12
2.41808e-12
1.40763e-13
9.74577e-13
1.5289e-12
1.29101e-13
1.03144e-12
1.33801e-12
8.15466e-13
7.23358e-13
2.2906e-12
4.03532e-13
1.19222e-12
1.65833e-13
8.03865e-13
6.49656e-13
3.1993e-13
5.69837e-14
3.56025e-12
4.13294e-12
1.43345e-12
2.23227e-12
7.55265e-13
3.283e-13
2.22192e-12
1.78687e-12
5.09063e-13
2.42752e-13
3.31723e-12
4.68387e-12
4.05256e-12
2.76651e-12
1.79851e-12
1.35964e-12
3.45422e-15
1.00132e-12
6.72725e-15
2.51208e-13
8.1546e-13
5.79365e-13
1.10678e-12
1.17236e-13
8.45561e-13
1.33978e-13
1.46353e-12
8.28952e-15
7.85407e-13
4.03751e-12
2.50367e-12
4.51279e-12
1.83042e-12
5.15763e-13
2.42752e-13
3.31723e-12
4.68387e-12
4.05256e-12
2.76651e-12
1.79851e-12
1.35964e-12
3.45422e-15
1.00132e-12
6.72725e-15
2.51208e-13
8.1546e-13
5.79365e-13
1.10678e-12
1.17236e-13
8.45561e-13
1.33978e-13
1.46353e-12
8.28952e-15
7.85407e-13
4.03751e-12
2.50367e-12
4.51279e-12
1.83042e-12
5.15763e-13
2.42752e-13
3.31723e-12
4.68387e-12
4.05256e-12
2.76651e-12
1.79851e-12
1.35964e-12
3.45422e-15
1.00132e-12
6.72725e-15
2.51208e-13
8.1546e-13
5.79365e-13
1.10678e-12
1.17236e-13
8.48912e-13
2.4954e-13
4.72186e-13
1.71091e-15
1.50885e-12
3.1869e-12
2.35451e-12
1.57391e-12
5.77881e-13
3.71251e-12
1.32622e-12
1.93564e-12
1.41167e-12
1.3665e-12
5.30827e-13
1.18231e-12
2.85534e-12
4.25677e-12
6.38073e-13
1.15508e-13
1.03158e-12
2.57036e-12
3.56706e-13
9.69458e-13
7.16791e-13
1.61262e-12
4.45478e-13
2.07634e-13
5.4753e-13
5.69016e-14
1.56561e-12
2.67932e-14
1.26418e-12
2.76212e-13
6.69762e-13
6.69766e-13
1.75146e-15
1.09509e-12
1.63064e-15
1.47382e-13
6.69838e-13
9.47737e-13
6.6974e-13
5.6916e-14
6.3589e-14
1.03158e-12
2.57036e-12
3.56706e-13
9.69458e-13
7.16791e-13
1.61262e-12
4.45478e-13
2.07634e-13
5.9442e-13
1.75811e-13
1.14865e-12
6.02874e-19
1.22568e-12
1.77485e-13
6.32936e-13
3.31778e-15
4.02421e-14
6.73088e-13
3.34948e-15
6.76437e-13
4.89255e-17
4.07808e-18
2.46654e-22
1.56474e-23
1.23351e-22
2.31872e-18
2.55011e-17
6.69762e-13
6.69732e-13
3.71813e-13
9.60936e-13
9.82979e-13
2.10126e-12
2.44334e-13
7.16582e-13
5.45753e-13
1.33621e-12
5.31279e-17
4.60296e-18
1.26374e-19
1.67614e-15
1.64842e-15
4.10255e-13
6.68087e-13
1.07832e-12
5.20998e-17
5.71058e-13
2.08657e-12
1.2342e-12
6.07897e-13
6.64827e-13
1.87046e-12
6.19554e-13
1.68296e-12
8.23871e-13
8.17397e-13
1.16059e-12
3.1378e-12
4.73709e-13
6.52173e-14
6.68028e-13
1.3362e-12
5.30498e-17
4.60295e-18
1.26374e-19
1.67614e-15
1.64842e-15
4.10255e-13
6.68087e-13
1.07832e-12
4.88274e-17
4.26256e-18
2.41925e-22
1.03083e-23
5.3663e-24
1.28696e-22
2.31884e-18
2.77942e-17
6.69786e-13
9.21079e-14
6.68161e-13
1.00466e-12
4.26951e-13
6.68132e-13
1.9984e-18
6.6811e-13
5.0377e-24
6.6811e-13
1.2869e-22
6.68112e-13
2.78161e-17
1.67431e-15
2.53708e-17
6.69759e-13
6.68106e-13
4.16904e-13
1.08502e-12
4.93729e-17
4.28017e-18
1.15063e-22
2.30726e-18
2.76781e-17
6.68112e-13
1.2774e-22
6.6811e-13
3.33699e-28
6.6811e-13
7.61891e-29
6.6811e-13
5.10165e-31
6.6811e-13
4.27934e-28
6.6811e-13
1.2869e-22
6.68112e-13
2.78161e-17
1.67431e-15
2.53708e-17
6.69759e-13
6.68106e-13
4.16904e-13
1.08502e-12
4.93729e-17
4.28017e-18
1.15063e-22
2.30726e-18
2.76781e-17
6.68112e-13
2.43051e-22
6.68108e-13
2.17879e-17
1.08836e-12
4.20255e-13
6.6813e-13
1.99894e-17
1.09506e-12
4.26953e-13
6.6813e-13
1.98408e-17
1.09004e-12
4.21929e-13
6.68134e-13
2.73568e-17
2.73437e-17
6.68134e-13
4.16906e-13
1.08501e-12
3.62131e-19
1.09506e-12
4.26953e-13
6.68132e-13
2.00583e-18
6.6811e-13
1.32813e-22
6.68112e-13
2.76781e-17
2.30727e-18
6.36567e-34
2.30727e-18
2.76781e-17
6.68112e-13
7.61046e-29
6.68112e-13
2.76781e-17
2.30727e-18
1.22414e-22
1.27477e-22
2.30739e-18
2.96757e-17
6.68134e-13
4.23604e-13
1.09171e-12
9.12525e-20
1.09506e-12
4.26953e-13
6.68132e-13
2.00583e-18
6.6811e-13
1.32813e-22
6.68112e-13
2.76781e-17
2.30727e-18
1.2774e-22
5.3256e-24
3.32435e-28
9.24202e-30
6.16698e-34
1.28616e-35
8.95892e-40
1.49519e-41
1.51758e-41
8.94192e-40
1.3022e-35
6.11405e-34
9.33409e-30
3.26434e-28
5.36532e-24
1.23335e-22
2.31872e-18
2.54982e-17
6.69761e-13
6.69761e-13
2.54982e-17
2.31872e-18
1.23335e-22
5.36532e-24
3.26434e-28
9.33409e-30
6.11405e-34
1.3022e-35
8.94192e-40
1.51747e-41
1.07707e-45
1.43904e-60
1.07707e-45
1.51747e-41
8.94192e-40
1.3022e-35
6.11405e-34
9.33409e-30
3.26434e-28
5.36532e-24
1.23335e-22
2.31872e-18
2.54982e-17
6.69761e-13
6.69761e-13
2.54982e-17
2.31872e-18
1.23336e-22
1.99366e-23
3.49469e-22
4.97375e-18
5.96601e-17
8.62296e-13
1.65684e-27
8.62296e-13
5.96532e-17
1.24276e-18
8.88279e-14
1.65939e-12
4.53334e-12
2.36962e-11
1.18607e-10
5.95307e-10
2.90194e-09
1.37278e-08
6.29786e-08
2.79629e-07
1.20105e-06
4.97986e-06
1.99158e-05
7.66445e-05
0.000283486
0.00100505
0.00340924
0.0110296
0.0339411
0.0989417
0.272089
0.701764
1.68625
3.74648
7.59026
13.7342
22.294
33.1413
45.9129
60.0619
75.0336
90.3759
105.692
120.73
135.084
148.661
160.913
171.628
180.695
187.958
193.2
196.594
198.587
199.369
199.537
199.612
199.636
199.676
200.181
200.649
200.014
198.715
197.618
196.97
196.679
196.512
196.41
196.238
195.772
195.012
193.72
191.388
186.898
175.376
134.65
62.0817
17.0634
4.19832
0.975605
0.221499
0.0494869
0.0108778
0.00234935
0.000498134
0.000103638
2.11579e-05
4.23853e-06
8.33435e-07
1.60865e-07
3.04866e-08
5.67321e-09
1.03588e-09
1.86302e-10
3.23106e-11
5.43305e-12
7.56594e-13
2.44286e-12
1.64087e-12
4.61265e-13
1.15213e-12
1.05104e-12
3.04374e-16
2.50978e-17
6.88123e-21
2.86712e-22
5.92826e-26
8.53643e-23
2.04379e-21
9.23498e-18
1.10675e-16
6.67934e-13
1.10677e-16
1.85158e-17
1.08276e-16
6.69565e-13
5.30759e-13
4.03391e-13
2.64466e-13
1.01262e-16
5.80641e-13
7.8815e-13
4.76503e-18
6.80981e-13
4.73591e-13
6.68012e-13
8.7189e-18
6.67916e-13
8.4314e-23
6.67916e-13
2.12829e-26
6.67916e-13
1.9584e-21
6.67925e-13
1.01438e-16
1.0144e-16
6.67934e-13
1.19954e-16
1.11184e-16
6.69506e-13
6.69395e-13
6.67722e-13
6.67825e-13
1.78421e-17
3.88205e-13
3.88334e-13
6.68e-13
8.86183e-17
1.18504e-12
5.17126e-13
6.68005e-13
1.10411e-13
1.42785e-12
6.88126e-13
1.43964e-12
8.10128e-13
4.96163e-17
5.76015e-18
4.39482e-22
2.55583e-23
3.67618e-27
3.11784e-23
7.28562e-22
4.71513e-18
5.50554e-17
4.77153e-13
8.07785e-14
1.44436e-12
7.88379e-13
1.0613e-12
5.65776e-13
5.71042e-13
8.37304e-13
1.07458e-13
1.64696e-12
3.66197e-14
2.75576e-12
1.12888e-12
4.17179e-14
1.67028e-15
9.01693e-19
5.60068e-21
2.32388e-23
3.44033e-27
2.06722e-26
8.28291e-23
1.98498e-21
9.05088e-18
1.08607e-16
6.61237e-13
5.05981e-15
8.35647e-14
1.05723e-13
1.3375e-12
1.93949e-13
2.37367e-12
1.42053e-13
1.30781e-12
3.25101e-13
1.86298e-12
1.75435e-13
1.68588e-12
3.82103e-13
1.07167e-12
1.69195e-13
1.03816e-17
3.06958e-17
6.12858e-13
4.82822e-14
1.22539e-12
3.54666e-13
1.91653e-12
1.40278e-13
3.68407e-13
9.90715e-18
7.36932e-14
3.95226e-13
5.36125e-13
1.27386e-12
1.19126e-13
1.44767e-12
1.87257e-13
6.24702e-13
7.14984e-13
7.98244e-13
2.39177e-13
1.20028e-12
5.37775e-13
6.16237e-13
2.21091e-13
2.22725e-13
1.66087e-17
5.50957e-13
6.6838e-13
1.15674e-12
3.38093e-14
1.75747e-12
1.47094e-14
4.72246e-13
1.27279e-13
7.3691e-14
3.95225e-13
5.36125e-13
1.27386e-12
1.19126e-13
1.44767e-12
1.87257e-13
6.24702e-13
7.14984e-13
7.98244e-13
2.39177e-13
1.20028e-12
5.37781e-13
9.19329e-13
1.40714e-13
9.3505e-18
8.86762e-18
1.11227e-16
6.69596e-13
3.30636e-17
9.62583e-13
1.11227e-16
2.92975e-13
3.30616e-17
2.75715e-18
3.09327e-22
4.60496e-20
5.05667e-19
1.67287e-15
1.67287e-15
5.07486e-19
4.68518e-20
9.28111e-18
1.11227e-16
6.69599e-13
1.40162e-21
6.69599e-13
1.07562e-16
3.29358e-17
5.94391e-13
2.89426e-13
9.08873e-13
3.43213e-15
5.47363e-13
1.91531e-15
9.72672e-13
1.1064e-16
3.04718e-13
2.38923e-17
1.99286e-18
1.91782e-22
4.60545e-20
5.05667e-19
1.67287e-15
1.67287e-15
5.07486e-19
4.68518e-20
9.28111e-18
1.11227e-16
6.69599e-13
3.37542e-21
6.69589e-13
5.51027e-18
6.69531e-13
6.67358e-14
2.92875e-13
9.0719e-13
3.43132e-15
5.50712e-13
1.91551e-15
9.72672e-13
1.1064e-16
3.04718e-13
2.38923e-17
1.99286e-18
1.91782e-22
4.60545e-20
5.05667e-19
1.67287e-15
1.67287e-15
5.07488e-19
4.6997e-20
9.46552e-18
1.22641e-16
6.73044e-13
6.54427e-13
1.32737e-12
1.88403e-15
1.69617e-15
5.92718e-13
2.87757e-13
1.03103e-12
6.59188e-13
9.22298e-13
5.77386e-13
2.10084e-12
1.20845e-13
4.51554e-14
1.96342e-18
9.23402e-18
1.18654e-16
6.66346e-13
4.88666e-13
1.15492e-12
2.03847e-16
1.77198e-17
3.11727e-21
9.46534e-18
1.22641e-16
6.73044e-13
6.54427e-13
1.32737e-12
1.88403e-15
1.69617e-15
5.92718e-13
2.87757e-13
1.03103e-12
6.59188e-13
9.22298e-13
5.77386e-13
2.10084e-12
1.20845e-13
4.51554e-14
1.9635e-18
9.2321e-18
1.10123e-16
6.66248e-13
4.43883e-17
1.26399e-12
3.23758e-15
5.94383e-13
5.30335e-17
1.21684e-16
6.61346e-13
6.79636e-13
4.63677e-13
1.3947e-12
9.55589e-14
6.0128e-13
1.14826e-12
4.60209e-13
6.76493e-13
6.69691e-13
3.53236e-13
3.16353e-13
1.57388e-15
2.21025e-16
1.16506e-12
1.77507e-15
4.95547e-13
6.69601e-13
6.66128e-13
5.36745e-17
1.26399e-12
3.23758e-15
5.94383e-13
5.30335e-17
1.21684e-16
6.61346e-13
6.79636e-13
4.63677e-13
1.3947e-12
9.55589e-14
6.0128e-13
1.14826e-12
4.60209e-13
6.76493e-13
6.69691e-13
3.53236e-13
3.16353e-13
1.57388e-15
2.21025e-16
1.16506e-12
1.77507e-15
4.95547e-13
6.69601e-13
6.66128e-13
5.36745e-17
1.26399e-12
3.23758e-15
5.94383e-13
5.30335e-17
1.21684e-16
6.61346e-13
6.79636e-13
4.63677e-13
1.3947e-12
9.55589e-14
6.0128e-13
1.14826e-12
4.60209e-13
6.76493e-13
6.69691e-13
3.53236e-13
3.16353e-13
1.57388e-15
2.21025e-16
1.16506e-12
1.77507e-15
4.95547e-13
6.69601e-13
6.66128e-13
5.36745e-17
1.26399e-12
3.23758e-15
5.94383e-13
5.30335e-17
1.21684e-16
6.61346e-13
6.79636e-13
4.63677e-13
1.3947e-12
9.7248e-14
8.40559e-13
5.54367e-13
1.76195e-12
2.72144e-12
3.16416e-12
2.30132e-12
4.01851e-13
2.21817e-12
1.02551e-12
4.75845e-13
1.74437e-13
4.64658e-12
3.78136e-12
1.69827e-12
1.36127e-12
1.00966e-12
8.23471e-13
7.9425e-17
2.2088e-13
5.01867e-15
2.15876e-13
6.76396e-17
5.63576e-18
1.76797e-21
5.8634e-23
4.60777e-20
5.5173e-19
1.67338e-15
1.61671e-21
1.67338e-15
5.50576e-19
4.59618e-20
7.03081e-23
1.95992e-21
8.88524e-18
9.74032e-17
3.83148e-13
5.82419e-13
1.40595e-13
9.42443e-13
2.17695e-13
8.20205e-13
8.59489e-17
2.2088e-13
5.01867e-15
2.15876e-13
6.76396e-17
5.63576e-18
1.76797e-21
5.8634e-23
4.60777e-20
5.5173e-19
1.67338e-15
1.61671e-21
1.67338e-15
5.50576e-19
4.59618e-20
7.03081e-23
1.95992e-21
8.88524e-18
9.74032e-17
3.83148e-13
5.82419e-13
1.40595e-13
9.42443e-13
2.17695e-13
8.20205e-13
8.59489e-17
2.2088e-13
5.01867e-15
2.15876e-13
6.76396e-17
5.63576e-18
1.76797e-21
5.8634e-23
4.60777e-20
5.5173e-19
1.67338e-15
1.61671e-21
1.67338e-15
5.50576e-19
4.59618e-20
7.03081e-23
1.95992e-21
8.88524e-18
9.74032e-17
3.83148e-13
5.82419e-13
1.40595e-13
9.42443e-13
2.17695e-13
8.20205e-13
8.59489e-17
2.2088e-13
5.01542e-15
2.15837e-13
4.23514e-13
1.01537e-14
1.08304e-12
6.69458e-13
1.08015e-16
)
;

boundaryField
{
    sides
    {
        type            calculated;
        value           nonuniform List<scalar> 2(1.08015e-16 1.79255e-13);
    }
    empty
    {
        type            empty;
    }
}


// ************************************************************************* //
