/*--------------------------------*- C++ -*----------------------------------*\
| =========                 |                                                 |
| \\      /  F ield         | OpenFOAM: The Open Source CFD Toolbox           |
|  \\    /   O peration     | Version:  4.1                                   |
|   \\  /    A nd           | Web:      www.OpenFOAM.org                      |
|    \\/     M anipulation  |                                                 |
\*---------------------------------------------------------------------------*/
FoamFile
{
    version     2.0;
    format      ascii;
    class       surfaceScalarField;
    location    "0.0004";
    object      phi;
}
// * * * * * * * * * * * * * * * * * * * * * * * * * * * * * * * * * * * * * //

dimensions      [1 0 -1 0 0 0 0];

internalField   nonuniform List<scalar> 
999
(
-1.9682e-12
-3.28981e-12
-1.50635e-12
6.13909e-12
7.75913e-12
2.52243e-12
-3.98614e-12
-2.11742e-12
-2.59348e-12
2.05347e-12
2.47979e-12
-3.30402e-12
-8.68994e-12
-8.5052e-12
-8.71125e-12
-7.54596e-12
-9.30811e-12
-9.96891e-12
-9.23706e-12
-5.05906e-12
1.15818e-12
3.90799e-12
8.34888e-12
8.22098e-12
2.71427e-12
4.29168e-12
5.07328e-12
5.77671e-12
9.76996e-12
7.7236e-12
6.55831e-12
1.91136e-12
1.98241e-12
-9.30811e-13
2.13873e-12
3.01981e-12
-4.0643e-12
-8.81073e-12
-8.5052e-12
-8.71125e-12
-7.54596e-12
-9.30811e-12
-9.96891e-12
-9.23706e-12
-5.05906e-12
1.15818e-12
3.90799e-12
8.34888e-12
8.22098e-12
2.71427e-12
4.29168e-12
5.07328e-12
5.77671e-12
9.76996e-12
7.7236e-12
6.55831e-12
1.91136e-12
1.98241e-12
-9.30811e-13
2.13873e-12
3.01981e-12
-4.0643e-12
-8.81073e-12
-8.5052e-12
-8.71125e-12
-7.54596e-12
-9.30811e-12
-9.96891e-12
-9.23706e-12
-5.05906e-12
1.15818e-12
3.91509e-12
8.27072e-12
8.2494e-12
1.71951e-12
1.9611e-12
3.2685e-12
1.48503e-12
7.88702e-12
6.23857e-12
-1.66978e-12
-8.06466e-12
-3.81561e-12
-2.72138e-12
-3.45324e-12
-3.16192e-12
-2.07478e-12
-4.61853e-12
-3.73035e-12
-2.13163e-12
2.36611e-12
3.42482e-12
-3.1406e-12
-1.4353e-12
-1.33582e-12
-4.68958e-13
2.42295e-12
2.27374e-13
6.08225e-12
1.4424e-11
9.18021e-12
5.55644e-12
3.22586e-12
-2.54374e-12
-3.46034e-12
-8.14282e-12
-3.47455e-12
-1.67688e-12
5.92593e-12
1.355e-11
1.57954e-11
1.09139e-11
8.57625e-12
9.80549e-13
-2.68585e-12
-1.59872e-12
-1.92557e-12
5.18696e-13
1.6982e-12
2.55085e-12
-1.00897e-12
-1.59872e-12
1.59872e-12
1.62714e-12
-2.13163e-12
-2.82085e-12
-1.16529e-12
-8.52651e-12
-1.21432e-11
-1.14042e-11
-1.18092e-11
-3.58114e-12
-1.67688e-12
5.92593e-12
1.355e-11
1.57954e-11
1.09139e-11
8.57625e-12
9.80549e-13
-2.68585e-12
-1.59872e-12
-1.92557e-12
5.18696e-13
1.6982e-12
2.55085e-12
-1.00897e-12
-1.59872e-12
1.59872e-12
1.62714e-12
-2.13163e-12
-2.82085e-12
-1.16529e-12
-8.52651e-12
-1.21432e-11
-1.14042e-11
-1.18092e-11
-3.58114e-12
-1.67688e-12
5.92593e-12
1.355e-11
1.57954e-11
1.09139e-11
8.57625e-12
9.80549e-13
-2.68585e-12
-1.59872e-12
-1.92557e-12
5.18696e-13
1.6982e-12
2.55085e-12
-1.00897e-12
-1.59872e-12
1.59872e-12
2.01084e-12
-3.55271e-13
-1.00187e-12
-2.12452e-12
-9.59233e-12
-8.57625e-12
-6.5441e-12
-3.97193e-12
-7.09832e-12
-9.53548e-12
1.40687e-12
5.19407e-12
5.57776e-12
2.69296e-12
3.31823e-12
6.33094e-12
1.37135e-11
7.94387e-12
1.25766e-12
-1.47082e-12
-6.4162e-12
-5.40012e-12
1.25056e-12
2.67875e-12
4.29168e-12
3.2685e-12
1.40687e-12
-7.31859e-13
-1.02318e-12
2.47979e-12
2.94875e-12
-2.34479e-12
-1.59872e-12
-6.25278e-13
0
1.26477e-12
1.76925e-12
1.98952e-12
-3.2685e-13
-1.27187e-12
-2.97007e-12
-4.33431e-13
1.03739e-12
-7.10543e-15
-1.51346e-12
-6.4162e-12
-5.40012e-12
1.25056e-12
2.67875e-12
4.29168e-12
3.2685e-12
1.40687e-12
-8.02913e-13
-1.27898e-12
1.59872e-12
1.99663e-12
-2.13163e-12
-1.69109e-12
1.35714e-12
9.66338e-13
1.06581e-13
1.3145e-12
1.00897e-12
-1.00187e-12
-1.28608e-12
0
0
0
0
0
0
-1.12976e-12
0
4.68958e-13
-2.54374e-12
9.9476e-14
4.9809e-12
3.01981e-12
-1.4424e-12
-3.2685e-13
-1.49925e-12
-2.17426e-12
0
0
0
7.10543e-15
6.18172e-13
2.03926e-12
-8.02913e-13
-1.76215e-12
-8.45546e-13
-4.72511e-12
-6.50147e-12
-2.63611e-12
-2.7498e-12
-3.72324e-12
-2.69296e-12
4.55458e-12
3.9222e-12
2.90612e-12
3.8014e-12
7.48912e-12
4.34142e-12
-8.66862e-13
1.14397e-12
-1.28608e-12
-2.17426e-12
0
0
0
7.10543e-15
6.18172e-13
2.03926e-12
-8.10019e-13
-1.74083e-12
0
0
0
0
0
0
0
-1.08002e-12
-1.11555e-12
1.48503e-12
2.67875e-12
1.14397e-12
-1.98952e-12
-1.07292e-12
1.08002e-12
1.3074e-12
-1.27898e-12
-1.07292e-12
1.07292e-12
1.27898e-12
-1.42109e-14
1.42109e-14
-1.12976e-12
-7.10543e-15
2.01084e-12
-1.23634e-12
-1.77636e-12
0
0
0
0
1.08002e-12
1.29319e-12
-1.29319e-12
-1.08002e-12
1.07292e-12
1.3074e-12
-1.27898e-12
-1.07292e-12
1.08002e-12
1.3074e-12
-1.27898e-12
-1.07292e-12
1.07292e-12
1.27898e-12
-1.42109e-14
1.42109e-14
-1.12976e-12
-7.10543e-15
2.01084e-12
-1.23634e-12
-1.77636e-12
0
0
0
0
1.07292e-12
1.29319e-12
-1.29319e-12
-1.07292e-12
1.77636e-12
1.23634e-12
-2.00373e-12
-1.07292e-12
1.77636e-12
1.25056e-12
-2.03926e-12
-1.07292e-12
1.79057e-12
1.23634e-12
-1.97531e-12
-1.07292e-12
0
1.08002e-12
2.01084e-12
-1.23634e-12
-1.77636e-12
1.79767e-12
1.23634e-12
-1.98952e-12
-1.07292e-12
1.07292e-12
1.29319e-12
-1.29319e-12
-1.07292e-12
0
0
0
0
1.08002e-12
1.3074e-12
-1.27898e-12
-1.07292e-12
0
0
0
0
0
1.08002e-12
1.99663e-12
-1.23634e-12
-1.79767e-12
1.79767e-12
1.23634e-12
-1.98952e-12
-1.07292e-12
1.07292e-12
1.29319e-12
-1.29319e-12
-1.07292e-12
0
0
0
0
0
0
0
0
0
0
0
0
0
0
0
0
0
0
0
-1.12976e-12
7.10543e-15
1.08002e-12
0
0
0
0
0
0
0
0
0
0
0
0
0
0
0
0
0
0
0
0
0
0
-1.10845e-12
0
1.10845e-12
0
0
0
0
0
0
1.42109e-12
1.59872e-12
-1.5774e-12
-1.42109e-12
0
1.06581e-13
2.76401e-12
8.95284e-12
4.16094e-11
2.08821e-10
1.0528e-09
5.18103e-09
2.47573e-08
1.14764e-07
5.15255e-07
2.23853e-06
9.396e-06
3.80579e-05
0.000148481
0.000557118
0.00200603
0.00691749
0.0227843
0.0714814
0.212877
0.599412
1.58801
3.93438
9.0474
19.1496
36.9012
62.2029
93.8289
130.006
168.185
206.007
241.763
274.427
303.433
328.652
349.666
367.48
380.905
390.422
399.268
403.688
405.436
407.991
408.832
407.665
406.794
407.313
410.013
410.588
403.593
364.353
319.552
294.859
281.749
275.312
271.65
270.775
271.2
271.243
268.642
268.175
267.422
265.119
258.945
229.866
100.054
32.6893
8.33964
1.9654
0.450266
0.101543
0.0225612
0.00493083
0.00105855
0.000223053
4.61187e-05
9.35703e-06
1.8631e-06
3.64142e-07
6.98701e-08
1.31637e-08
2.43523e-09
4.42247e-10
7.88454e-11
1.35909e-11
2.1263e-12
-6.75016e-13
-2.00018e-12
-7.72715e-13
-8.63309e-13
-8.43769e-13
-4.83169e-13
0
0
0
0
0
0
0
0
2.70006e-13
3.10862e-13
-3.55271e-15
5.32907e-15
2.55795e-13
7.99361e-14
-4.54747e-13
-4.26326e-14
9.23706e-14
2.91323e-13
-1.45661e-13
-2.38032e-13
2.00728e-13
1.43885e-13
-5.20473e-13
-2.70006e-13
2.70006e-13
3.10862e-13
-3.16192e-13
-2.70006e-13
2.73559e-13
3.10862e-13
-3.16192e-13
-2.6823e-13
0
2.6823e-13
3.09086e-13
-1.77636e-15
3.21521e-13
-5.32907e-15
3.55271e-15
-5.32907e-15
-2.52243e-13
1.43885e-13
5.32907e-15
-4.90274e-13
-2.70006e-13
4.81393e-13
3.16192e-13
-5.38236e-13
-3.16192e-13
5.27578e-13
3.67706e-13
-1.01252e-12
-2.43361e-13
3.2685e-13
-1.77636e-15
1.77636e-15
0
0
-1.77636e-15
1.77636e-15
0
0
-2.00728e-13
-2.18492e-13
-6.85674e-13
-2.78888e-13
7.4607e-13
2.6823e-13
-5.57776e-13
-5.52447e-13
-4.74287e-13
-6.85674e-13
-7.78044e-13
1.25766e-12
1.81188e-12
4.1922e-13
-1.42109e-14
0
0
-1.77636e-15
1.77636e-15
0
0
-1.77636e-15
1.77636e-15
0
-2.57572e-13
-3.32179e-13
4.79616e-14
-1.42109e-14
-6.73239e-13
-6.21725e-13
1.02496e-12
8.31335e-13
-5.22249e-13
-8.26006e-13
-8.34888e-13
-8.36664e-13
8.93507e-13
8.31335e-13
6.75016e-13
5.38236e-13
6.39488e-14
0
-2.50466e-13
-2.71783e-13
-4.60076e-13
-7.67386e-13
7.35412e-13
7.42517e-13
1.15463e-13
1.43885e-13
-3.37508e-14
-1.81188e-13
-4.42313e-13
-7.86926e-13
-4.81393e-13
7.78044e-13
4.29878e-13
-2.64677e-13
-6.76792e-13
-5.96856e-13
-2.84217e-13
6.76792e-13
6.96332e-13
5.54223e-13
3.17968e-13
2.2915e-13
8.34888e-14
-2.22045e-13
-5.66658e-13
-7.90479e-13
-4.61853e-13
8.17124e-13
7.05214e-13
2.13163e-13
2.89546e-13
1.59872e-14
-1.81188e-13
-4.42313e-13
-7.86926e-13
-4.81393e-13
7.78044e-13
4.29878e-13
-2.64677e-13
-6.76792e-13
-5.96856e-13
-2.84217e-13
6.76792e-13
6.96332e-13
6.69687e-13
4.72511e-13
5.50671e-14
0
0
-2.70006e-13
-2.80664e-13
4.06786e-13
4.10338e-13
-1.49214e-13
-1.15463e-13
0
0
0
-1.77636e-15
3.55271e-15
0
-5.32907e-15
1.77636e-15
0
0
-2.70006e-13
-2.80664e-13
2.71783e-13
3.17968e-13
-5.32907e-15
-2.36255e-13
-1.52767e-13
-2.38032e-13
-4.3876e-13
2.64677e-13
2.22045e-13
3.94351e-13
4.61853e-13
-1.5099e-13
-1.19016e-13
0
0
0
-1.77636e-15
3.55271e-15
0
-5.32907e-15
1.77636e-15
0
0
-2.70006e-13
-2.80664e-13
2.71783e-13
3.17968e-13
-3.12639e-13
-2.36255e-13
1.29674e-13
-2.34479e-13
-4.36984e-13
2.64677e-13
2.27374e-13
3.94351e-13
4.61853e-13
-1.5099e-13
-1.19016e-13
0
0
0
-1.77636e-15
3.55271e-15
0
-5.32907e-15
1.77636e-15
0
0
-2.73559e-13
-6.0929e-13
2.96652e-13
6.00409e-13
0
-2.45137e-13
-1.49214e-13
-2.85993e-13
-1.95399e-13
-9.41469e-14
-7.0699e-13
6.91003e-13
1.03384e-12
1.59872e-14
-1.24345e-14
0
-3.55271e-15
-2.55795e-13
-5.47118e-13
2.73559e-13
5.22249e-13
-5.32907e-15
1.77636e-15
0
0
-2.73559e-13
-6.0929e-13
2.96652e-13
6.00409e-13
0
-2.45137e-13
-1.49214e-13
-2.85993e-13
-1.95399e-13
-9.41469e-14
-7.0699e-13
6.91003e-13
1.03384e-12
1.59872e-14
-1.24345e-14
0
-3.55271e-15
-2.55795e-13
-3.2685e-13
5.56e-13
6.02185e-13
-2.98428e-13
-2.38032e-13
0
-2.6823e-13
-5.61329e-13
-9.05942e-14
7.37188e-13
7.31859e-13
-2.71783e-13
-6.92779e-13
-3.44613e-13
5.15143e-13
5.50671e-13
1.5099e-13
-3.09086e-13
-1.26121e-13
3.55271e-15
-4.88498e-13
-5.40012e-13
2.34479e-13
4.70735e-13
5.32907e-15
-3.2685e-13
5.56e-13
6.02185e-13
-2.98428e-13
-2.38032e-13
0
-2.6823e-13
-5.61329e-13
-9.05942e-14
7.37188e-13
7.31859e-13
-2.71783e-13
-6.92779e-13
-3.44613e-13
5.15143e-13
5.50671e-13
1.5099e-13
-3.09086e-13
-1.26121e-13
3.55271e-15
-4.88498e-13
-5.40012e-13
2.34479e-13
4.70735e-13
5.32907e-15
-3.2685e-13
5.56e-13
6.02185e-13
-2.98428e-13
-2.38032e-13
0
-2.6823e-13
-5.61329e-13
-9.05942e-14
7.37188e-13
7.31859e-13
-2.71783e-13
-6.92779e-13
-3.44613e-13
5.15143e-13
5.50671e-13
1.5099e-13
-3.09086e-13
-1.26121e-13
3.55271e-15
-4.88498e-13
-5.40012e-13
2.34479e-13
4.70735e-13
5.32907e-15
-3.2685e-13
5.56e-13
6.02185e-13
-2.98428e-13
-2.38032e-13
0
-2.6823e-13
-5.61329e-13
-9.05942e-14
7.37188e-13
7.31859e-13
-3.41061e-13
-6.57252e-13
-1.05338e-12
-1.95577e-12
-2.50466e-12
-2.25242e-12
-1.32339e-12
-9.66338e-13
-6.83897e-13
8.33111e-13
2.14939e-13
2.23999e-12
3.64331e-12
2.49401e-12
1.22569e-12
1.14397e-12
6.03961e-14
-3.28626e-13
8.34888e-14
1.06581e-13
-1.15463e-13
-7.63833e-14
-3.55271e-15
1.77636e-15
0
0
0
0
1.77636e-15
-3.55271e-15
3.55271e-15
-5.32907e-15
1.77636e-15
0
0
0
1.91847e-13
-1.1724e-13
-2.6823e-13
2.93099e-13
5.80869e-13
-3.09086e-13
-3.28626e-13
8.34888e-14
1.06581e-13
-1.15463e-13
-7.63833e-14
-3.55271e-15
1.77636e-15
0
0
0
0
1.77636e-15
-3.55271e-15
3.55271e-15
-5.32907e-15
1.77636e-15
0
0
0
1.91847e-13
-1.1724e-13
-2.6823e-13
2.93099e-13
5.80869e-13
-3.09086e-13
-3.28626e-13
8.34888e-14
1.06581e-13
-1.15463e-13
-7.63833e-14
-3.55271e-15
1.77636e-15
0
0
0
0
1.77636e-15
-3.55271e-15
3.55271e-15
-5.32907e-15
1.77636e-15
0
0
0
1.91847e-13
-1.1724e-13
-2.6823e-13
2.93099e-13
5.80869e-13
-3.09086e-13
-3.28626e-13
8.34888e-14
1.06581e-13
-1.15463e-13
1.24345e-13
1.24345e-13
-3.89022e-13
-2.23821e-13
2.73559e-13
)
;

boundaryField
{
    sides
    {
        type            calculated;
        value           nonuniform List<scalar> 2(9.38619e-17 6.23065e-13);
    }
    empty
    {
        type            empty;
        value           nonuniform 0();
    }
}


// ************************************************************************* //
