-4.995 	400 	1.62424e-11 	100000
-4.985 	400 	1.96576e-11 	100000
-4.975 	400 	2.30733e-11 	100000
-4.965 	400 	2.40396e-11 	100000
-4.955 	400 	2.63396e-11 	100000
-4.945 	400 	2.83594e-11 	100000
-4.935 	400 	3.06287e-11 	100000
-4.925 	400 	3.06166e-11 	100000
-4.915 	400 	2.98245e-11 	100000
-4.905 	400 	2.90372e-11 	100000
-4.895 	400 	2.83705e-11 	100000
-4.885 	400 	3.03553e-11 	100000
-4.875 	400 	2.85684e-11 	100000
-4.865 	400 	3.02051e-11 	100000
-4.855 	400 	2.75035e-11 	100000
-4.845 	400 	2.82405e-11 	100000
-4.835 	400 	2.4948e-11 	100000
-4.825 	400 	2.88157e-11 	100000
-4.815 	400 	2.5349e-11 	100000
-4.805 	400 	3.0342e-11 	100000
-4.795 	400 	2.67452e-11 	100000
-4.785 	400 	3.02353e-11 	100000
-4.775 	400 	2.76668e-11 	100000
-4.765 	400 	3.0142e-11 	100000
-4.755 	400 	2.74609e-11 	100000
-4.745 	400 	2.82678e-11 	100000
-4.735 	400 	2.41028e-11 	100000
-4.725 	400 	2.34967e-11 	100000
-4.715 	400 	2.28341e-11 	100000
-4.705 	400 	2.17309e-11 	100000
-4.695 	400 	2.08809e-11 	100000
-4.685 	400 	2.06502e-11 	100000
-4.675 	400 	2.10924e-11 	100000
-4.665 	400 	1.87622e-11 	100000
-4.655 	400 	1.89399e-11 	100000
-4.645 	400 	1.51025e-11 	100000
-4.635 	400 	1.69292e-11 	100000
-4.625 	400 	1.25617e-11 	100000
-4.615 	400 	1.39727e-11 	100000
-4.605 	400 	8.40498e-12 	100000
-4.595 	400 	1.113e-11 	100000
-4.585 	400 	7.52883e-12 	100000
-4.575 	400 	9.32073e-12 	100000
-4.565 	400 	4.46046e-12 	100000
-4.555 	400 	7.28233e-12 	100000
-4.545 	400 	1.93165e-12 	100000
-4.535 	400 	3.68441e-12 	100000
-4.525 	400 	1.9537e-12 	100000
-4.515 	400 	4.65508e-12 	100000
-4.505 	400 	2.09827e-12 	100000
-4.495 	400 	5.0868e-12 	100000
-4.485 	400 	2.66892e-12 	100000
-4.475 	400 	5.22745e-12 	100000
-4.465 	400 	5.674e-12 	100000
-4.455 	400 	5.99092e-12 	100000
-4.445 	400 	5.35209e-12 	100000
-4.435 	400 	6.59047e-12 	100000
-4.425 	400 	7.99163e-12 	100000
-4.415 	400 	5.5419e-12 	100000
-4.405 	400 	4.96489e-12 	100000
-4.395 	400 	3.18728e-13 	100000
-4.385 	400 	3.52328e-12 	100000
-4.375 	400 	1.33975e-12 	100000
-4.365 	400 	4.67675e-12 	100000
-4.355 	400 	1.1188e-12 	100000
-4.345 	400 	6.40141e-12 	100000
-4.335 	400 	4.78832e-12 	100000
-4.325 	400 	5.69796e-12 	100000
-4.315 	400 	8.01799e-13 	100000
-4.305 	400 	2.43164e-12 	100000
-4.295 	400 	5.6846e-14 	100000
-4.285 	400 	4.30444e-12 	100000
-4.275 	400 	4.84317e-13 	100000
-4.265 	400 	5.66009e-12 	100000
-4.255 	400 	5.74826e-13 	100000
-4.245 	400 	6.41651e-12 	100000
-4.235 	400 	1.44655e-12 	100000
-4.225 	400 	6.18147e-12 	100000
-4.215 	400 	3.10694e-12 	100000
-4.205 	400 	2.7915e-12 	100000
-4.195 	400 	6.61678e-13 	100000
-4.185 	400 	1.03683e-12 	100000
-4.175 	400 	3.43126e-12 	100000
-4.165 	400 	2.68967e-12 	100000
-4.155 	400 	9.5536e-13 	100000
-4.145 	400 	4.43751e-12 	100000
-4.135 	400 	4.10202e-12 	100000
-4.125 	400 	8.50459e-12 	100000
-4.115 	400 	4.8704e-12 	100000
-4.105 	400 	7.11547e-12 	100000
-4.095 	400 	4.55783e-12 	100000
-4.085 	400 	7.92917e-12 	100000
-4.075 	400 	4.68326e-13 	100000
-4.065 	400 	3.17384e-12 	100000
-4.055 	400 	2.13075e-13 	100000
-4.045 	400 	4.26183e-12 	100000
-4.035 	400 	5.45591e-12 	100000
-4.025 	400 	7.48956e-12 	100000
-4.015 	400 	6.12079e-12 	100000
-4.005 	400 	1.00539e-11 	100000
-3.995 	400 	8.00896e-12 	100000
-3.985 	400 	9.21065e-12 	100000
-3.975 	400 	1.02308e-11 	100000
-3.965 	400 	8.55215e-12 	100000
-3.955 	400 	1.03305e-11 	100000
-3.945 	400 	1.16121e-11 	100000
-3.935 	400 	1.16999e-11 	100000
-3.925 	400 	1.19084e-11 	100000
-3.915 	400 	1.06947e-11 	100000
-3.905 	400 	1.16672e-11 	100000
-3.895 	400 	1.20516e-11 	100000
-3.885 	400 	9.602e-12 	100000
-3.875 	400 	8.43557e-12 	100000
-3.865 	400 	6.09237e-12 	100000
-3.855 	400 	7.66758e-12 	100000
-3.845 	400 	7.34848e-12 	100000
-3.835 	400 	9.15061e-12 	100000
-3.825 	400 	9.97666e-12 	100000
-3.815 	400 	1.22366e-11 	100000
-3.805 	400 	1.14355e-11 	100000
-3.795 	400 	1.15987e-11 	100000
-3.785 	400 	8.7283e-12 	100000
-3.775 	400 	9.29972e-12 	100000
-3.765 	400 	1.12625e-11 	100000
-3.755 	400 	1.14303e-11 	100000
-3.745 	400 	1.16365e-11 	100000
-3.735 	400 	1.22386e-11 	100000
-3.725 	400 	1.31095e-11 	100000
-3.715 	400 	9.80441e-12 	100000
-3.705 	400 	1.16986e-11 	100000
-3.695 	400 	1.10639e-11 	100000
-3.685 	400 	1.33999e-11 	100000
-3.675 	400 	1.30546e-11 	100000
-3.665 	400 	1.28156e-11 	100000
-3.655 	400 	1.29486e-11 	100000
-3.645 	400 	1.32903e-11 	100000
-3.635 	400 	1.37255e-11 	100000
-3.625 	400 	1.25032e-11 	100000
-3.615 	400 	1.13036e-11 	100000
-3.605 	400 	1.12783e-11 	100000
-3.595 	400 	1.36389e-11 	100000
-3.585 	400 	1.39596e-11 	100000
-3.575 	400 	1.43898e-11 	100000
-3.565 	400 	1.55333e-11 	100000
-3.555 	400 	1.39095e-11 	100000
-3.545 	400 	1.50443e-11 	100000
-3.535 	400 	1.47401e-11 	100000
-3.525 	400 	1.46965e-11 	100000
-3.515 	400 	1.84136e-11 	100000
-3.505 	400 	1.84138e-11 	100000
-3.495 	400 	1.92248e-11 	100000
-3.485 	400 	1.77137e-11 	100000
-3.475 	400 	2.07968e-11 	100000
-3.465 	400 	1.8451e-11 	100000
-3.455 	400 	2.05263e-11 	100000
-3.445 	400 	1.97573e-11 	100000
-3.435 	400 	2.04114e-11 	100000
-3.425 	400 	2.23307e-11 	100000
-3.415 	400 	2.2029e-11 	100000
-3.405 	400 	2.41989e-11 	100000
-3.395 	400 	2.39591e-11 	100000
-3.385 	400 	2.52088e-11 	100000
-3.375 	400 	2.39072e-11 	100000
-3.365 	400 	2.2828e-11 	100000
-3.355 	400 	2.40647e-11 	100000
-3.345 	400 	2.43219e-11 	100000
-3.335 	400 	2.36866e-11 	100000
-3.325 	400 	2.21482e-11 	100000
-3.315 	400 	2.14582e-11 	100000
-3.305 	400 	2.27833e-11 	100000
-3.295 	400 	2.42545e-11 	100000
-3.285 	400 	2.34842e-11 	100000
-3.275 	400 	2.24821e-11 	100000
-3.265 	400 	2.33007e-11 	100000
-3.255 	400 	2.21209e-11 	100000
-3.245 	400 	2.13429e-11 	100000
-3.235 	400 	1.99571e-11 	100000
-3.225 	400 	2.21927e-11 	100000
-3.215 	400 	1.88049e-11 	100000
-3.205 	400 	2.21882e-11 	100000
-3.195 	400 	2.03187e-11 	100000
-3.185 	400 	2.27411e-11 	100000
-3.175 	400 	2.23587e-11 	100000
-3.165 	400 	2.32833e-11 	100000
-3.155 	400 	2.49263e-11 	100000
-3.145 	400 	2.60866e-11 	100000
-3.135 	400 	2.50545e-11 	100000
-3.125 	400 	2.6881e-11 	100000
-3.115 	400 	2.71369e-11 	100000
-3.105 	400 	2.64942e-11 	100000
-3.095 	400 	2.70281e-11 	100000
-3.085 	400 	2.44646e-11 	100000
-3.075 	400 	2.97382e-11 	100000
-3.065 	400 	2.86097e-11 	100000
-3.055 	400 	3.74067e-11 	100000
-3.045 	400 	5.05645e-11 	100000
-3.035 	400 	8.54051e-11 	100000
-3.025 	400 	1.45354e-10 	100000
-3.015 	400 	2.76466e-10 	100000
-3.005 	400 	5.30935e-10 	100000
-2.995 	400 	1.04026e-09 	100000
-2.985 	400 	2.02123e-09 	100000
-2.975 	400 	3.91703e-09 	100000
-2.965 	400 	7.53577e-09 	100000
-2.955 	400 	1.44113e-08 	100000
-2.945 	400 	2.73731e-08 	100000
-2.935 	400 	5.16443e-08 	100000
-2.925 	400 	9.67596e-08 	100000
-2.915 	400 	1.80021e-07 	100000
-2.905 	400 	3.32552e-07 	100000
-2.895 	400 	6.09907e-07 	100000
-2.885 	400 	1.11044e-06 	100000
-2.875 	400 	2.00683e-06 	100000
-2.865 	400 	3.59964e-06 	100000
-2.855 	400 	6.40754e-06 	100000
-2.845 	400 	1.13177e-05 	100000
-2.835 	400 	1.98335e-05 	100000
-2.825 	400 	3.44793e-05 	100000
-2.815 	400 	5.94534e-05 	100000
-2.805 	400 	0.000101669 	100000
-2.795 	400 	0.000172396 	99999.9
-2.785 	400 	0.000289815 	99999.9
-2.775 	400 	0.000482942 	99999.8
-2.765 	400 	0.000797571 	99999.7
-2.755 	399.999 	0.00130515 	99999.6
-2.745 	399.999 	0.00211582 	99999.3
-2.735 	399.999 	0.00339726 	99998.8
-2.725 	399.998 	0.00540142 	99998.1
-2.715 	399.997 	0.00850177 	99997.1
-2.705 	399.995 	0.0132439 	99995.4
-2.695 	399.992 	0.0204128 	99992.9
-2.685 	399.988 	0.0311198 	99989.2
-2.675 	399.981 	0.046911 	99983.8
-2.665 	399.972 	0.0698978 	99975.8
-2.655 	399.959 	0.102906 	99964.4
-2.645 	399.941 	0.149634 	99948.2
-2.635 	399.915 	0.214806 	99925.5
-2.625 	399.879 	0.304299 	99894.5
-2.615 	399.831 	0.425193 	99852.5
-2.605 	399.767 	0.585725 	99796.7
-2.595 	399.684 	0.795069 	99723.9
-2.585 	399.577 	1.0629 	99630.8
-2.575 	399.443 	1.39866 	99514.1
-2.565 	399.278 	1.81042 	99370.9
-2.555 	399.081 	2.30318 	99199.4
-2.545 	398.851 	2.87661 	98999.8
-2.535 	398.591 	3.5248 	98774.5
-2.525 	398.304 	4.23957 	98526.9
-2.515 	397.995 	5.01364 	98259.5
-2.505 	397.664 	5.8411 	97974.4
-2.495 	397.314 	6.71678 	97673.7
-2.485 	396.947 	7.63583 	97358.9
-2.475 	396.565 	8.59362 	97031.9
-2.465 	396.17 	9.58581 	96694.3
-2.455 	395.763 	10.6084 	96347.4
-2.445 	395.345 	11.6578 	95992.6
-2.435 	394.918 	12.7307 	95631.1
-2.425 	394.484 	13.8243 	95263.9
-2.415 	394.042 	14.9362 	94891.8
-2.405 	393.595 	16.0641 	94515.7
-2.395 	393.142 	17.2063 	94136.2
-2.385 	392.684 	18.3612 	93753.9
-2.375 	392.222 	19.5272 	93369.2
-2.365 	391.757 	20.7034 	92982.7
-2.355 	391.288 	21.8886 	92594.5
-2.345 	390.817 	23.082 	92205.2
-2.335 	390.343 	24.2827 	91814.9
-2.325 	389.866 	25.4902 	91423.9
-2.315 	389.388 	26.7038 	91032.3
-2.305 	388.907 	27.9229 	90640.5
-2.295 	388.425 	29.1473 	90248.4
-2.285 	387.941 	30.3763 	89856.4
-2.275 	387.456 	31.6097 	89464.4
-2.265 	386.97 	32.8472 	89072.7
-2.255 	386.483 	34.0884 	88681.2
-2.245 	385.994 	35.3331 	88290.2
-2.235 	385.505 	36.581 	87899.7
-2.225 	385.015 	37.832 	87509.7
-2.215 	384.524 	39.0859 	87120.3
-2.205 	384.032 	40.3424 	86731.6
-2.195 	383.54 	41.6014 	86343.6
-2.185 	383.047 	42.8628 	85956.5
-2.175 	382.553 	44.1264 	85570.1
-2.165 	382.059 	45.3921 	85184.6
-2.155 	381.565 	46.6597 	84800.1
-2.145 	381.07 	47.9292 	84416.4
-2.135 	380.575 	49.2005 	84033.8
-2.125 	380.079 	50.4735 	83652.1
-2.115 	379.584 	51.748 	83271.5
-2.105 	379.088 	53.024 	82891.9
-2.095 	378.591 	54.3014 	82513.4
-2.085 	378.095 	55.5802 	82135.9
-2.075 	377.599 	56.8602 	81759.6
-2.065 	377.102 	58.1414 	81384.5
-2.055 	376.605 	59.4238 	81010.5
-2.045 	376.108 	60.7072 	80637.6
-2.035 	375.611 	61.9917 	80266
-2.025 	375.114 	63.2771 	79895.5
-2.015 	374.617 	64.5634 	79526.3
-2.005 	374.12 	65.8506 	79158.2
-1.995 	373.623 	67.1386 	78791.4
-1.985 	373.127 	68.4273 	78425.9
-1.975 	372.63 	69.7168 	78061.6
-1.965 	372.133 	71.0069 	77698.6
-1.955 	371.636 	72.2977 	77336.8
-1.945 	371.14 	73.589 	76976.4
-1.935 	370.643 	74.8809 	76617.2
-1.925 	370.147 	76.1732 	76259.3
-1.915 	369.651 	77.466 	75902.7
-1.905 	369.155 	78.7593 	75547.5
-1.895 	368.659 	80.0529 	75193.6
-1.885 	368.163 	81.3469 	74841
-1.875 	367.668 	82.6412 	74489.7
-1.865 	367.173 	83.9357 	74139.8
-1.855 	366.678 	85.2305 	73791.2
-1.845 	366.183 	86.5255 	73444
-1.835 	365.689 	87.8206 	73098.1
-1.825 	365.195 	89.1159 	72753.6
-1.815 	364.701 	90.4113 	72410.5
-1.805 	364.208 	91.7067 	72068.7
-1.795 	363.714 	93.0022 	71728.3
-1.785 	363.222 	94.2976 	71389.3
-1.775 	362.729 	95.593 	71051.7
-1.765 	362.237 	96.8883 	70715.4
-1.755 	361.745 	98.1835 	70380.6
-1.745 	361.254 	99.4786 	70047.1
-1.735 	360.763 	100.773 	69715.1
-1.725 	360.272 	102.068 	69384.4
-1.715 	359.782 	103.362 	69055.2
-1.705 	359.293 	104.656 	68727.4
-1.695 	358.803 	105.95 	68401
-1.685 	358.315 	107.244 	68076
-1.675 	357.826 	108.536 	67752.5
-1.665 	357.339 	109.829 	67430.4
-1.655 	356.851 	111.121 	67109.7
-1.645 	356.365 	112.412 	66790.4
-1.635 	355.878 	113.703 	66472.6
-1.625 	355.393 	114.993 	66156.3
-1.615 	354.908 	116.283 	65841.4
-1.605 	354.423 	117.572 	65527.9
-1.595 	353.94 	118.86 	65216
-1.585 	353.457 	120.147 	64905.5
-1.575 	352.974 	121.433 	64596.4
-1.565 	352.492 	122.719 	64288.9
-1.555 	352.011 	124.003 	63982.9
-1.545 	351.531 	125.286 	63678.3
-1.535 	351.051 	126.568 	63375.2
-1.525 	350.572 	127.85 	63073.7
-1.515 	350.094 	129.129 	62773.7
-1.505 	349.617 	130.408 	62475.2
-1.495 	349.14 	131.685 	62178.2
-1.485 	348.665 	132.961 	61882.8
-1.475 	348.19 	134.235 	61589
-1.465 	347.716 	135.507 	61296.7
-1.455 	347.244 	136.778 	61006
-1.445 	346.772 	138.047 	60716.9
-1.435 	346.301 	139.314 	60429.4
-1.425 	345.831 	140.579 	60143.5
-1.415 	345.363 	141.842 	59859.2
-1.405 	344.895 	143.102 	59576.6
-1.395 	344.429 	144.36 	59295.7
-1.385 	343.964 	145.616 	59016.4
-1.375 	343.5 	146.869 	58738.9
-1.365 	343.038 	148.12 	58463.1
-1.355 	342.577 	149.367 	58189
-1.345 	342.117 	150.611 	57916.8
-1.335 	341.659 	151.852 	57646.3
-1.325 	341.203 	153.09 	57377.6
-1.315 	340.748 	154.324 	57110.8
-1.305 	340.295 	155.554 	56845.9
-1.295 	339.844 	156.78 	56583
-1.285 	339.395 	158.001 	56322
-1.275 	338.947 	159.218 	56063
-1.265 	338.502 	160.43 	55806
-1.255 	338.059 	161.637 	55551.2
-1.245 	337.618 	162.839 	55298.4
-1.235 	337.18 	164.034 	55047.9
-1.225 	336.744 	165.224 	54799.7
-1.215 	336.311 	166.406 	54553.8
-1.205 	335.881 	167.582 	54310.2
-1.195 	335.454 	168.75 	54069.2
-1.185 	335.03 	169.911 	53830.6
-1.175 	334.611 	171.062 	53594.8
-1.165 	334.19 	172.205 	53361.6
-1.155 	333.784 	173.338 	53131.2
-1.145 	333.363 	174.461 	52903.8
-1.135 	332.978 	175.573 	52679.5
-1.125 	332.546 	176.672 	52458.2
-1.115 	332.199 	177.76 	52240.4
-1.105 	331.739 	178.833 	52025.9
-1.095 	331.447 	179.893 	51815.2
-1.085 	330.955 	180.936 	51608
-1.075 	330.709 	181.964 	51405.1
-1.065 	330.218 	182.973 	51206
-1.055 	329.963 	183.964 	51011.5
-1.045 	329.55 	184.934 	50821.5
-1.035 	329.212 	185.882 	50636.2
-1.025 	328.932 	186.808 	50456.1
-1.015 	328.51 	187.709 	50281.2
-1.005 	328.3 	188.583 	50112
-0.995 	327.921 	189.429 	49948.5
-0.985 	327.637 	190.246 	49791.2
-0.975 	327.412 	191.031 	49640.4
-0.965 	327.045 	191.783 	49496.2
-0.955 	326.873 	192.499 	49359.1
-0.945 	326.599 	193.18 	49229.2
-0.935 	326.328 	193.821 	49106.8
-0.925 	326.194 	194.423 	48992.2
-0.915 	325.924 	194.983 	48885.6
-0.905 	325.751 	195.502 	48787.1
-0.895 	325.628 	195.977 	48696.9
-0.885 	325.408 	196.409 	48615
-0.875 	325.303 	196.797 	48541.2
-0.865 	325.2 	197.143 	48475.8
-0.855 	325.043 	197.446 	48418.1
-0.845 	324.982 	197.708 	48368.4
-0.835 	324.911 	197.932 	48325.8
-0.825 	324.812 	198.119 	48290.1
-0.815 	324.78 	198.273 	48261
-0.805 	324.743 	198.396 	48237.3
-0.795 	324.689 	198.492 	48218.9
-0.785 	324.673 	198.564 	48205
-0.775 	324.663 	198.617 	48194.9
-0.765 	324.64 	198.652 	48187.9
-0.755 	324.633 	198.674 	48183.5
-0.745 	324.634 	198.686 	48181.1
-0.735 	324.633 	198.69 	48180.1
-0.725 	324.632 	198.691 	48180.2
-0.715 	324.632 	198.692 	48180.2
-0.705 	324.634 	198.691 	48180.3
-0.695 	324.635 	198.689 	48180.7
-0.685 	324.637 	198.684 	48181.4
-0.675 	324.64 	198.675 	48182.9
-0.665 	324.645 	198.663 	48185
-0.655 	324.651 	198.649 	48187.4
-0.645 	324.654 	198.636 	48189.7
-0.635 	324.66 	198.625 	48191.9
-0.625 	324.664 	198.616 	48193.6
-0.615 	324.666 	198.609 	48195
-0.605 	324.67 	198.604 	48196
-0.595 	324.671 	198.6 	48196.8
-0.585 	324.672 	198.597 	48197.3
-0.575 	324.674 	198.594 	48197.7
-0.565 	324.675 	198.593 	48198
-0.555 	324.676 	198.592 	48198.2
-0.545 	324.677 	198.591 	48198.4
-0.535 	324.678 	198.59 	48198.5
-0.525 	324.679 	198.589 	48198.6
-0.515 	324.679 	198.589 	48198.8
-0.505 	324.68 	198.588 	48198.9
-0.495 	324.681 	198.588 	48199
-0.485 	324.682 	198.587 	48199.1
-0.475 	324.683 	198.586 	48199.1
-0.465 	324.684 	198.585 	48199.2
-0.455 	324.684 	198.585 	48199.4
-0.445 	324.685 	198.584 	48199.5
-0.435 	324.686 	198.584 	48199.6
-0.425 	324.687 	198.583 	48199.7
-0.415 	324.688 	198.583 	48199.8
-0.405 	324.689 	198.582 	48199.9
-0.395 	324.69 	198.581 	48200
-0.385 	324.69 	198.581 	48200.1
-0.375 	324.691 	198.58 	48200.1
-0.365 	324.692 	198.579 	48200.2
-0.355 	324.693 	198.579 	48200.3
-0.345 	324.694 	198.578 	48200.4
-0.335 	324.695 	198.578 	48200.5
-0.325 	324.696 	198.577 	48200.6
-0.315 	324.697 	198.577 	48200.7
-0.305 	324.698 	198.576 	48200.8
-0.295 	324.699 	198.576 	48200.9
-0.285 	324.7 	198.575 	48201
-0.275 	324.701 	198.575 	48201
-0.265 	324.702 	198.574 	48201.1
-0.255 	324.703 	198.574 	48201.2
-0.245 	324.704 	198.573 	48201.3
-0.235 	324.705 	198.573 	48201.4
-0.225 	324.706 	198.572 	48201.5
-0.215 	324.707 	198.572 	48201.5
-0.205 	324.708 	198.571 	48201.6
-0.195 	324.709 	198.571 	48201.7
-0.185 	324.71 	198.57 	48201.8
-0.175 	324.711 	198.57 	48201.8
-0.165 	324.712 	198.569 	48201.9
-0.155 	324.714 	198.569 	48202
-0.145 	324.715 	198.568 	48202.1
-0.135 	324.715 	198.568 	48202.1
-0.125 	324.717 	198.567 	48202.2
-0.115 	324.718 	198.567 	48202.3
-0.105 	324.719 	198.566 	48202.4
-0.095 	324.72 	198.566 	48202.5
-0.085 	324.722 	198.565 	48202.5
-0.075 	324.723 	198.565 	48202.6
-0.065 	324.724 	198.564 	48202.7
-0.055 	324.726 	198.564 	48202.8
-0.045 	324.727 	198.563 	48202.8
-0.035 	324.728 	198.563 	48202.9
-0.025 	324.729 	198.562 	48203
-0.015 	324.731 	198.562 	48203.1
-0.005 	324.732 	198.561 	48203.1
0.005 	324.733 	198.561 	48203.2
0.015 	324.735 	198.56 	48203.3
0.025 	324.736 	198.56 	48203.3
0.035 	324.737 	198.559 	48203.4
0.045 	324.739 	198.559 	48203.5
0.055 	324.741 	198.559 	48203.5
0.065 	324.742 	198.558 	48203.6
0.075 	324.743 	198.558 	48203.6
0.085 	324.745 	198.557 	48203.7
0.095 	324.747 	198.557 	48203.7
0.105 	324.748 	198.557 	48203.8
0.115 	324.749 	198.556 	48203.8
0.125 	324.751 	198.556 	48203.8
0.135 	324.753 	198.556 	48203.9
0.145 	324.754 	198.556 	48203.9
0.155 	324.755 	198.555 	48203.9
0.165 	324.758 	198.555 	48204
0.175 	324.76 	198.555 	48204
0.185 	324.761 	198.555 	48204
0.195 	324.762 	198.555 	48204.1
0.205 	324.764 	198.554 	48204.1
0.215 	324.767 	198.554 	48204.1
0.225 	324.768 	198.554 	48204.1
0.235 	324.769 	198.554 	48204.1
0.245 	324.771 	198.554 	48204.1
0.255 	324.774 	198.553 	48204.1
0.265 	324.776 	198.553 	48204.2
0.275 	324.778 	198.553 	48204.2
0.285 	324.779 	198.553 	48204.2
0.295 	324.782 	198.553 	48204.2
0.305 	324.785 	198.553 	48204.2
0.315 	324.786 	198.553 	48204.2
0.325 	324.788 	198.552 	48204.2
0.335 	324.79 	198.552 	48204.2
0.345 	324.794 	198.552 	48204.2
0.355 	324.796 	198.552 	48204.2
0.365 	324.797 	198.552 	48204.2
0.375 	324.799 	198.551 	48204.3
0.385 	324.803 	198.551 	48204.3
0.395 	324.806 	198.551 	48204.3
0.405 	324.809 	198.551 	48204.3
0.415 	324.81 	198.551 	48204.4
0.425 	324.812 	198.55 	48204.4
0.435 	324.816 	198.55 	48204.4
0.445 	324.821 	198.55 	48204.4
0.455 	324.824 	198.55 	48204.4
0.465 	324.825 	198.549 	48204.5
0.475 	324.827 	198.549 	48204.5
0.485 	324.831 	198.549 	48204.5
0.495 	324.836 	198.549 	48204.5
0.505 	324.84 	198.548 	48204.5
0.515 	324.843 	198.548 	48204.6
0.525 	324.844 	198.548 	48204.6
0.535 	324.847 	198.548 	48204.6
0.545 	324.853 	198.548 	48204.6
0.555 	324.858 	198.547 	48204.6
0.565 	324.863 	198.547 	48204.6
0.575 	324.865 	198.547 	48204.7
0.585 	324.867 	198.547 	48204.7
0.595 	324.871 	198.547 	48204.7
0.605 	324.877 	198.546 	48204.7
0.615 	324.884 	198.546 	48204.7
0.625 	324.89 	198.546 	48204.7
0.635 	324.893 	198.546 	48204.7
0.645 	324.895 	198.546 	48204.8
0.655 	324.898 	198.546 	48204.8
0.665 	324.904 	198.545 	48204.8
0.675 	324.913 	198.545 	48204.8
0.685 	324.922 	198.545 	48204.8
0.695 	324.928 	198.545 	48204.8
0.705 	324.931 	198.545 	48204.8
0.715 	324.933 	198.545 	48204.8
0.725 	324.937 	198.545 	48204.8
0.735 	324.945 	198.545 	48204.8
0.745 	324.957 	198.544 	48204.8
0.755 	324.969 	198.544 	48204.8
0.765 	324.977 	198.544 	48204.8
0.775 	324.981 	198.544 	48204.8
0.785 	324.983 	198.544 	48204.8
0.795 	324.987 	198.544 	48204.8
0.805 	324.998 	198.543 	48204.8
0.815 	325.014 	198.543 	48204.8
0.825 	325.03 	198.543 	48204.8
0.835 	325.041 	198.543 	48204.8
0.845 	325.047 	198.543 	48204.8
0.855 	325.051 	198.543 	48204.8
0.865 	325.055 	198.542 	48204.8
0.875 	325.067 	198.542 	48204.8
0.885 	325.089 	198.542 	48204.8
0.895 	325.112 	198.542 	48204.8
0.905 	325.13 	198.542 	48204.8
0.915 	325.14 	198.541 	48204.8
0.925 	325.145 	198.541 	48204.8
0.935 	325.15 	198.541 	48204.8
0.945 	325.161 	198.541 	48204.9
0.955 	325.188 	198.541 	48204.8
0.965 	325.225 	198.541 	48204.8
0.975 	325.261 	198.54 	48204.8
0.985 	325.29 	198.54 	48204.9
0.995 	325.309 	198.54 	48204.9
1.005 	325.319 	198.54 	48204.9
1.015 	325.324 	198.539 	48204.9
1.025 	325.332 	198.539 	48204.9
1.035 	325.353 	198.539 	48205.1
1.045 	325.417 	198.539 	48205.1
1.055 	325.511 	198.539 	48205.1
1.065 	325.6 	198.538 	48205.1
1.075 	325.674 	198.537 	48205.1
1.085 	325.726 	198.537 	48205.1
1.095 	325.754 	198.536 	48205.3
1.105 	325.763 	198.535 	48205.3
1.115 	325.76 	198.534 	48205.2
1.125 	325.723 	198.534 	48204.9
1.135 	325.613 	198.538 	48205
1.145 	325.511 	198.545 	48205.2
1.155 	325.453 	198.556 	48205.4
1.165 	325.452 	198.578 	48207
1.175 	325.766 	198.642 	48209.1
1.185 	328.29 	198.782 	48210.8
1.195 	338.921 	198.83 	48201.8
1.205 	358.675 	198.717 	48203
1.215 	379.116 	198.595 	48203.3
1.225 	398.864 	198.505 	48197.6
1.235 	417.033 	198.472 	48197.9
1.245 	433.023 	198.487 	48208.5
1.255 	446.473 	198.505 	48212
1.265 	457.33 	198.503 	48204.6
1.275 	465.8 	198.499 	48198.8
1.285 	472.225 	198.518 	48205.2
1.295 	476.936 	198.542 	48212
1.305 	480.26 	198.538 	48207
1.315 	482.544 	198.517 	48198.4
1.325 	484.108 	198.521 	48200.5
1.335 	485.172 	198.546 	48211.4
1.345 	485.838 	198.551 	48212.2
1.355 	486.217 	198.525 	48199.6
1.365 	486.46 	198.512 	48195.6
1.375 	486.649 	198.536 	48208.3
1.385 	486.763 	198.559 	48215.8
1.395 	486.785 	198.542 	48205.4
1.405 	486.777 	198.513 	48194.9
1.415 	486.802 	198.523 	48201.1
1.425 	486.848 	198.554 	48214.3
1.435 	486.848 	198.554 	48212.6
1.445 	486.8 	198.522 	48198.2
1.455 	486.786 	198.509 	48195.8
1.465 	486.822 	198.534 	48209.5
1.475 	486.841 	198.553 	48215.4
1.485 	486.806 	198.531 	48203.6
1.495 	486.771 	198.505 	48194.5
1.505 	486.79 	198.519 	48203.4
1.515 	486.827 	198.55 	48215.3
1.525 	486.815 	198.543 	48210.3
1.535 	486.764 	198.509 	48195.4
1.545 	486.76 	198.508 	48196.8
1.555 	486.808 	198.54 	48213
1.565 	486.818 	198.552 	48215.5
1.575 	486.77 	198.523 	48200
1.585 	486.744 	198.501 	48193.7
1.595 	486.776 	198.523 	48206.4
1.605 	486.806 	198.552 	48216
1.615 	486.787 	198.54 	48208.5
1.625 	486.74 	198.507 	48195.1
1.635 	486.741 	198.509 	48197.9
1.645 	486.788 	198.541 	48213.4
1.655 	486.794 	198.549 	48214.5
1.665 	486.745 	198.519 	48198.7
1.675 	486.724 	198.502 	48194.1
1.685 	486.762 	198.527 	48208.3
1.695 	486.788 	198.552 	48216.2
1.705 	486.759 	198.533 	48205.4
1.715 	486.718 	198.502 	48194
1.725 	486.73 	198.512 	48200.6
1.735 	486.776 	198.545 	48214.9
1.745 	486.772 	198.544 	48212.6
1.755 	486.718 	198.511 	48195.9
1.765 	486.708 	198.502 	48194.7
1.775 	486.756 	198.532 	48211.6
1.785 	486.774 	198.552 	48216.7
1.795 	486.731 	198.525 	48201.7
1.805 	486.698 	198.497 	48192.6
1.815 	486.723 	198.515 	48203.4
1.825 	486.765 	198.549 	48216.3
1.835 	486.755 	198.541 	48211
1.845 	486.7 	198.506 	48194.6
1.855 	486.695 	198.501 	48195.2
1.865 	486.747 	198.533 	48212.4
1.875 	486.76 	198.548 	48215.8
1.885 	486.714 	198.521 	48200.2
1.895 	486.687 	198.497 	48193
1.905 	486.718 	198.518 	48205.4
1.915 	486.754 	198.547 	48216.3
1.925 	486.734 	198.534 	48207.8
1.935 	486.684 	198.5 	48193.1
1.945 	486.69 	198.504 	48197.4
1.955 	486.745 	198.539 	48215
1.965 	486.749 	198.545 	48214.8
1.975 	486.692 	198.511 	48196.2
1.985 	486.675 	198.493 	48192.4
1.995 	486.721 	198.523 	48209.1
2.005 	486.749 	198.549 	48217.2
2.015 	486.714 	198.527 	48204.3
2.025 	486.671 	198.493 	48192
2.035 	486.687 	198.505 	48199.6
2.045 	486.739 	198.541 	48215.6
2.055 	486.736 	198.541 	48213.2
2.065 	486.678 	198.505 	48194.9
2.075 	486.666 	198.493 	48193
2.085 	486.716 	198.524 	48210.3
2.095 	486.738 	198.546 	48216.5
2.105 	486.698 	198.52 	48202
2.115 	486.661 	198.49 	48191.6
2.125 	486.685 	198.507 	48201.9
2.135 	486.732 	198.542 	48216.2
2.145 	486.721 	198.534 	48210.5
2.155 	486.662 	198.496 	48192.7
2.165 	486.66 	198.493 	48194.1
2.175 	486.719 	198.53 	48213.3
2.185 	486.732 	198.544 	48216.1
2.195 	486.677 	198.509 	48197.6
2.205 	486.649 	198.484 	48190.3
2.215 	486.69 	198.512 	48205.9
2.225 	486.729 	198.545 	48217.5
2.235 	486.701 	198.525 	48206.1
2.245 	486.648 	198.485 	48190.3
2.255 	486.658 	198.494 	48196.3
2.265 	486.72 	198.535 	48215.7
2.275 	486.724 	198.539 	48214.9
2.285 	486.659 	198.498 	48194
2.295 	486.641 	198.479 	48189.7
2.305 	486.692 	198.512 	48208
2.315 	486.725 	198.542 	48217.4
2.325 	486.69 	198.518 	48204
2.335 	486.642 	198.48 	48189.8
2.345 	486.655 	198.49 	48196.9
2.355 	486.713 	198.529 	48214.8
2.365 	486.714 	198.531 	48213.1
2.375 	486.652 	198.492 	48193.2
2.385 	486.637 	198.476 	48190.1
2.395 	486.689 	198.509 	48208.6
2.405 	486.717 	198.534 	48216.2
2.415 	486.675 	198.506 	48200.8
2.425 	486.633 	198.471 	48188.6
2.435 	486.656 	198.486 	48198.6
2.445 	486.709 	198.525 	48214.9
2.455 	486.701 	198.518 	48210
2.465 	486.637 	198.476 	48190.4
2.475 	486.63 	198.467 	48190.1
2.485 	486.689 	198.504 	48210
2.495 	486.708 	198.522 	48214.7
2.505 	486.654 	198.487 	48195.9
2.515 	486.621 	198.455 	48186.6
2.525 	486.658 	198.479 	48201.2
2.535 	486.704 	198.515 	48214.8
2.545 	486.681 	198.497 	48204.4
2.555 	486.62 	198.452 	48186.3
2.565 	486.625 	198.453 	48190.2
2.575 	486.691 	198.494 	48211.2
2.585 	486.7 	198.501 	48211.9
2.595 	486.632 	198.457 	48189.6
2.605 	486.608 	198.43 	48183.4
2.615 	486.658 	198.46 	48201.7
2.625 	486.696 	198.491 	48212.8
2.635 	486.659 	198.463 	48198.1
2.645 	486.604 	198.417 	48182.1
2.655 	486.616 	198.423 	48188.5
2.665 	486.68 	198.462 	48208.3
2.675 	486.681 	198.46 	48206.4
2.685 	486.61 	198.412 	48183.5
2.695 	486.592 	198.388 	48179.4
2.705 	486.646 	198.418 	48198.5
2.715 	486.678 	198.441 	48207.2
2.725 	486.63 	198.405 	48189.2
2.735 	486.582 	198.358 	48175.4
2.745 	486.602 	198.366 	48184.3
2.755 	486.661 	198.401 	48202.3
2.765 	486.651 	198.386 	48196.3
2.775 	486.576 	198.331 	48173.1
2.785 	486.565 	198.309 	48171.4
2.795 	486.623 	198.337 	48191.2
2.805 	486.646 	198.349 	48196.9
2.815 	486.584 	198.3 	48174.9
2.825 	486.544 	198.251 	48163.5
2.835 	486.568 	198.257 	48173.7
2.845 	486.618 	198.282 	48188.9
2.855 	486.596 	198.253 	48178.6
2.865 	486.525 	198.19 	48157.3
2.875 	486.519 	198.166 	48156.6
2.885 	486.572 	198.184 	48174.2
2.895 	486.588 	198.177 	48176.6
2.905 	486.515 	198.116 	48152.4
2.915 	486.484 	198.062 	48143.6
2.925 	486.505 	198.058 	48152.3
2.935 	486.545 	198.062 	48164
2.945 	486.508 	198.014 	48148.6
2.955 	486.446 	197.941 	48130.1
2.965 	486.44 	197.906 	48128.9
2.975 	486.476 	197.901 	48141.1
2.985 	486.481 	197.869 	48140
2.995 	486.4 	197.789 	48114
3.005 	486.375 	197.721 	48106.9
3.015 	486.381 	197.691 	48109.8
3.025 	486.409 	197.664 	48117.7
3.035 	486.355 	197.587 	48097
3.045 	486.291 	197.489 	48078
3.055 	486.281 	197.425 	48074.4
3.065 	486.293 	197.384 	48079.5
3.075 	486.286 	197.309 	48074.1
3.085 	486.176 	197.182 	48038.9
3.095 	486.153 	197.071 	48029.5
3.105 	486.152 	197 	48029.4
3.115 	486.174 	196.92 	48035.4
3.125 	486.067 	196.765 	47996.5
3.135 	485.976 	196.587 	47970.1
3.145 	485.949 	196.463 	47963.9
3.155 	485.97 	196.368 	47970.8
3.165 	485.935 	196.195 	47946.3
3.175 	485.733 	195.939 	47884.1
3.185 	485.667 	195.726 	47867.8
3.195 	485.672 	195.582 	47868.2
3.205 	485.711 	195.39 	47869
3.215 	485.414 	195.034 	47775.2
3.225 	485.256 	194.664 	47729.9
3.235 	485.255 	194.412 	47719.4
3.245 	485.297 	194.161 	47731.9
3.255 	485.029 	193.688 	47643.5
3.265 	484.659 	193.105 	47521.1
3.275 	484.584 	192.639 	47484.1
3.285 	484.509 	192.13 	47470.8
3.295 	484.402 	191.259 	47435.8
3.305 	483.577 	189.682 	47135.1
3.315 	481.994 	186.781 	46656.3
3.325 	479.766 	180.087 	45939.4
3.335 	475.174 	159.254 	43988.3
3.345 	445.683 	101.826 	35091.9
3.355 	413.195 	35.3233 	27891.2
3.365 	403.474 	9.24381 	25758.1
3.375 	400.846 	2.26552 	25184.7
3.385 	400.202 	0.541578 	25044
3.395 	400.048 	0.12846 	25010.4
3.405 	400.011 	0.0304075 	25002.5
3.415 	400.003 	0.00719338 	25000.6
3.425 	400.001 	0.00170152 	25000.1
3.435 	400 	0.000402476 	25000
3.445 	400 	9.52012e-05 	25000
3.455 	400 	2.25185e-05 	25000
3.465 	400 	5.32634e-06 	25000
3.475 	400 	1.25983e-06 	25000
3.485 	400 	2.97984e-07 	25000
3.495 	400 	7.04856e-08 	25000
3.505 	400 	1.66772e-08 	25000
3.515 	400 	3.95116e-09 	25000
3.525 	400 	9.38602e-10 	25000
3.535 	400 	2.26134e-10 	25000
3.545 	400 	5.94929e-11 	25000
3.555 	400 	2.0006e-11 	25000
3.565 	400 	1.14566e-11 	25000
3.575 	400 	1.19374e-11 	25000
3.585 	400 	1.173e-11 	25000
3.595 	400 	1.29196e-11 	25000
3.605 	400 	1.33587e-11 	25000
3.615 	400 	1.58515e-11 	25000
3.625 	400 	1.63092e-11 	25000
3.635 	400 	1.61178e-11 	25000
3.645 	400 	1.74294e-11 	25000
3.655 	400 	1.8615e-11 	25000
3.665 	400 	2.01778e-11 	25000
3.675 	400 	1.96066e-11 	25000
3.685 	400 	2.18228e-11 	25000
3.695 	400 	2.08627e-11 	25000
3.705 	400 	2.07431e-11 	25000
3.715 	400 	1.97072e-11 	25000
3.725 	400 	1.99091e-11 	25000
3.735 	400 	1.91874e-11 	25000
3.745 	400 	2.1077e-11 	25000
3.755 	400 	2.20002e-11 	25000
3.765 	400 	2.33361e-11 	25000
3.775 	400 	2.47479e-11 	25000
3.785 	400 	2.31611e-11 	25000
3.795 	400 	2.50764e-11 	25000
3.805 	400 	2.2708e-11 	25000
3.815 	400 	2.08488e-11 	25000
3.825 	400 	2.13359e-11 	25000
3.835 	400 	2.05994e-11 	25000
3.845 	400 	2.1685e-11 	25000
3.855 	400 	2.09727e-11 	25000
3.865 	400 	2.00517e-11 	25000
3.875 	400 	2.00777e-11 	25000
3.885 	400 	2.13261e-11 	25000
3.895 	400 	2.1341e-11 	25000
3.905 	400 	2.19609e-11 	25000
3.915 	400 	2.1688e-11 	25000
3.925 	400 	2.31823e-11 	25000
3.935 	400 	2.38474e-11 	25000
3.945 	400 	2.11414e-11 	25000
3.955 	400 	2.24913e-11 	25000
3.965 	400 	2.29627e-11 	25000
3.975 	400 	2.45893e-11 	25000
3.985 	400 	2.35221e-11 	25000
3.995 	400 	2.17924e-11 	25000
4.005 	400 	1.99214e-11 	25000
4.015 	400 	1.84106e-11 	25000
4.025 	400 	1.69339e-11 	25000
4.035 	400 	1.73359e-11 	25000
4.045 	400 	1.60401e-11 	25000
4.055 	400 	1.78878e-11 	25000
4.065 	400 	1.41446e-11 	25000
4.075 	400 	1.69682e-11 	25000
4.085 	400 	1.66968e-11 	25000
4.095 	400 	1.75684e-11 	25000
4.105 	400 	1.88085e-11 	25000
4.115 	400 	2.08776e-11 	25000