/*--------------------------------*- C++ -*----------------------------------*\
| =========                 |                                                 |
| \\      /  F ield         | OpenFOAM: The Open Source CFD Toolbox           |
|  \\    /   O peration     | Version:  4.1                                   |
|   \\  /    A nd           | Web:      www.OpenFOAM.org                      |
|    \\/     M anipulation  |                                                 |
\*---------------------------------------------------------------------------*/
FoamFile
{
    version     2.0;
    format      ascii;
    class       volScalarField;
    location    "0.0014";
    object      mag(U);
}
// * * * * * * * * * * * * * * * * * * * * * * * * * * * * * * * * * * * * * //

dimensions      [0 1 -1 0 0 0 0];

internalField   nonuniform List<scalar> 
1000
(
7.86236e-12
6.04924e-12
1.00567e-11
8.75205e-12
8.2763e-12
9.14679e-12
8.3061e-12
1.09065e-11
9.47521e-12
9.78618e-12
8.6061e-12
1.06039e-11
1.02521e-11
1.03685e-11
7.67677e-12
5.68386e-12
2.5605e-12
3.82428e-12
9.89052e-13
2.4654e-12
7.0639e-13
3.77873e-12
2.00324e-12
1.55361e-12
1.87465e-12
1.79264e-12
1.67749e-12
2.42826e-12
1.21858e-13
2.01877e-12
3.86766e-13
3.61187e-12
4.84097e-12
5.14346e-12
4.69147e-12
2.18424e-13
4.39729e-12
5.11476e-12
7.60686e-12
4.26535e-12
4.22401e-12
2.59215e-12
2.34916e-13
2.90746e-13
2.17112e-12
7.88146e-13
6.34838e-13
1.13827e-12
1.1337e-12
1.29183e-12
4.95602e-12
1.76064e-12
2.49474e-12
1.75035e-12
3.98524e-13
2.11647e-12
9.24485e-13
2.70977e-12
2.32598e-13
2.33001e-12
4.26966e-12
3.76705e-13
6.80182e-13
2.90459e-12
9.32355e-13
5.59136e-13
7.81976e-13
3.43588e-12
1.96687e-12
4.37815e-12
8.26186e-13
2.53979e-12
3.34392e-12
4.39787e-13
1.18085e-12
7.10116e-13
3.02508e-12
1.19182e-12
1.05497e-12
2.32522e-12
8.68522e-13
1.08287e-12
1.61666e-12
1.25037e-12
1.35743e-12
7.47729e-13
1.92179e-13
2.57044e-12
2.39526e-12
3.96634e-12
1.92689e-12
4.10672e-12
5.48154e-12
5.64193e-12
3.33242e-12
7.52559e-12
6.57935e-12
7.17439e-12
6.99654e-12
8.18896e-12
8.68255e-12
6.3019e-12
6.50367e-12
3.95446e-12
4.6163e-12
3.29133e-12
1.28776e-12
4.01887e-12
4.62744e-12
2.25528e-12
6.17599e-12
4.24968e-12
4.68968e-12
6.08166e-12
3.40317e-12
4.61836e-12
1.78544e-12
4.66216e-12
1.70004e-12
2.11284e-12
2.37821e-13
2.29059e-13
6.83358e-13
1.09952e-12
4.55824e-13
3.36439e-12
1.25561e-13
1.13661e-12
3.36486e-12
1.48331e-12
1.67553e-12
2.03111e-12
2.81495e-12
3.25099e-13
2.06113e-12
3.53324e-12
4.78429e-12
3.77319e-12
4.16618e-12
5.361e-12
5.34631e-12
3.60976e-12
5.22282e-12
2.19076e-12
3.38546e-12
1.77515e-12
1.22425e-12
2.27375e-12
2.44742e-12
3.22828e-12
2.79993e-12
4.87621e-12
1.00731e-12
5.78186e-12
4.44833e-12
3.86069e-12
3.40467e-12
3.42149e-12
2.26372e-12
1.88059e-13
2.63238e-12
2.88856e-12
1.15748e-12
1.82172e-12
5.99079e-13
1.97664e-12
5.01655e-12
6.91116e-12
7.05539e-12
6.46729e-12
3.83669e-12
4.50979e-12
6.69318e-12
2.62417e-12
1.75214e-12
2.3229e-13
1.9615e-13
8.58028e-13
1.96239e-12
2.96362e-12
5.03223e-13
1.25222e-12
2.64627e-12
1.52548e-12
2.84186e-12
6.24057e-12
3.52756e-12
4.13035e-12
3.25858e-13
3.5834e-12
3.02747e-12
1.41074e-13
2.54456e-12
3.35666e-13
4.34042e-12
3.348e-12
6.40944e-12
3.09218e-12
2.60998e-12
1.31436e-13
2.02863e-12
6.65741e-13
4.30013e-12
1.46816e-12
2.13565e-12
1.94709e-12
4.31764e-13
2.09512e-12
2.05159e-12
5.4893e-12
3.59139e-12
4.65269e-12
4.80261e-12
1.70306e-12
2.32836e-12
4.78697e-12
1.74219e-12
4.31677e-12
4.1279e-12
3.29322e-12
3.33022e-12
3.79092e-12
6.83811e-13
4.36502e-13
7.13734e-14
2.85282e-12
6.62096e-13
1.51138e-12
7.8533e-13
4.6551e-13
5.43944e-13
8.69182e-13
1.25487e-12
3.3884e-12
2.57491e-12
6.50132e-13
6.63955e-12
2.50563e-12
3.73415e-12
1.06197e-12
8.09053e-13
1.17391e-12
1.32124e-12
3.79794e-12
3.17337e-12
3.16157e-12
4.29512e-13
3.23331e-12
3.11882e-12
4.8572e-12
3.70299e-12
3.0269e-13
2.21247e-13
2.6926e-12
2.44984e-12
2.40823e-12
3.52352e-12
4.20468e-12
3.67439e-12
3.93009e-12
4.35388e-13
6.00422e-13
3.18602e-12
5.13807e-13
1.4587e-12
1.70148e-12
1.94946e-12
2.06778e-12
1.1876e-12
1.54741e-12
9.89748e-13
3.72759e-12
4.36895e-12
2.45843e-12
1.99829e-12
2.67121e-12
2.35378e-12
1.02649e-12
2.94165e-12
6.26937e-13
3.40898e-12
2.06173e-12
1.77324e-13
1.21437e-12
3.04621e-12
5.49244e-12
1.86171e-12
2.68693e-12
1.5487e-12
1.24427e-12
1.55236e-12
2.20218e-12
2.8803e-12
1.27269e-12
1.82842e-12
2.69053e-12
8.46474e-13
4.02685e-12
1.26283e-12
6.77973e-13
1.62079e-12
1.04395e-12
2.39292e-12
2.14206e-12
1.6277e-12
1.38477e-12
1.26081e-12
2.50992e-12
1.45605e-13
1.28605e-12
1.78871e-13
1.18295e-12
1.91634e-12
1.08013e-12
1.58501e-12
3.96393e-13
2.4879e-17
4.64473e-18
1.72669e-17
2.06901e-16
8.78711e-13
2.87961e-21
8.78704e-13
1.27422e-16
5.57845e-13
3.44402e-23
5.57843e-13
1.10031e-16
2.66618e-13
1.48209e-12
1.03897e-13
1.59905e-12
2.53505e-12
3.61804e-13
1.26093e-12
1.78871e-13
1.18295e-12
1.91634e-12
1.08013e-12
1.58501e-12
3.96393e-13
2.9872e-17
6.38701e-17
2.0379e-12
3.1618e-13
1.54499e-13
1.69316e-12
2.81495e-14
2.46832e-12
2.40078e-12
3.76396e-13
1.17384e-12
1.21541e-12
5.099e-13
1.26714e-12
2.09982e-12
8.101e-13
2.81093e-12
1.01179e-12
1.87887e-12
1.57754e-12
1.94895e-12
8.58535e-13
2.6975e-12
3.21388e-13
1.78887e-12
4.46242e-12
1.97598e-12
1.47208e-12
4.38454e-13
2.17219e-12
1.15231e-12
9.9761e-13
1.66475e-12
3.41457e-12
2.03469e-12
1.16888e-12
9.50988e-13
5.10285e-13
2.42477e-18
8.88755e-13
2.0877e-16
1.54946e-17
2.81393e-17
7.06709e-13
9.07651e-13
6.26417e-13
1.88199e-12
1.0298e-12
1.38856e-12
6.83481e-13
1.58851e-12
6.25087e-13
8.59059e-13
6.1146e-13
8.455e-13
5.38474e-14
8.78652e-13
1.11557e-12
3.58862e-12
1.34144e-12
1.52894e-12
3.31588e-13
1.6776e-15
4.8616e-20
2.0097e-14
6.06219e-13
2.43661e-12
1.0006e-11
3.36635e-11
1.07255e-10
3.30883e-10
9.95765e-10
2.93605e-09
8.50899e-09
2.42601e-08
6.80266e-08
1.87569e-07
5.08392e-07
1.35403e-06
3.54208e-06
9.09684e-06
2.2925e-05
5.66608e-05
0.000137266
0.000325751
0.00075676
0.00171976
0.0038201
0.00828703
0.0175399
0.0361827
0.0726623
0.141864
0.268867
0.493809
0.877177
1.50357
2.47987
3.9186
5.88863
8.37802
11.3385
14.7267
18.492
22.5751
26.9169
31.4646
36.1739
41.0098
45.9448
50.9576
56.0314
61.1527
66.3108
71.4962
76.7011
81.9183
87.1412
92.3636
97.5795
102.783
107.967
113.126
118.253
123.341
128.381
133.364
138.282
143.122
147.873
152.522
157.055
161.45
165.701
169.771
173.66
177.325
180.756
183.936
186.819
189.41
191.685
193.624
195.227
196.508
197.478
198.154
198.594
198.855
198.978
199.008
199.002
198.999
198.988
198.955
198.889
198.802
198.725
198.671
198.631
198.604
198.592
198.587
198.58
198.576
198.574
198.573
198.571
198.571
198.571
198.571
198.569
198.567
198.564
198.563
198.563
198.56
198.556
198.55
198.544
198.554
198.585
198.669
198.877
199.086
198.976
198.676
198.524
198.469
198.434
198.416
198.44
198.474
198.462
198.421
198.41
198.436
198.443
198.395
198.348
198.355
198.374
198.334
198.261
198.228
198.237
198.222
198.144
198.063
198.03
198.015
197.946
197.828
197.733
197.677
197.612
197.468
197.293
197.158
197.051
196.89
196.608
196.321
196.108
195.89
195.49
194.949
194.515
194.114
193.477
192.289
190.088
185.639
174.197
134.72
63.1879
17.5443
4.40445
1.05351
0.248653
0.0584685
0.0137294
0.0032224
0.00075614
0.000177398
4.16115e-05
9.75856e-06
2.28801e-06
5.36321e-07
1.25682e-07
2.94447e-08
6.89662e-09
1.61425e-09
3.77034e-10
8.73185e-11
1.98971e-11
3.98556e-12
5.32847e-13
3.25337e-12
3.38071e-12
1.33125e-12
3.58507e-13
8.74087e-13
1.11996e-12
1.61011e-13
6.08654e-13
2.52768e-13
3.55502e-13
2.68177e-12
1.2456e-12
8.53076e-13
5.75395e-13
1.00677e-13
8.57385e-13
1.9693e-12
2.87684e-12
1.93055e-12
8.12145e-13
8.3026e-13
5.2032e-13
1.40963e-12
2.86943e-12
1.51888e-12
1.47556e-12
2.29357e-12
6.95271e-13
6.08993e-13
8.50775e-13
1.20167e-12
1.52341e-13
1.25814e-12
6.10751e-13
2.3923e-12
3.1018e-12
1.54601e-12
9.67601e-13
7.64829e-13
1.06534e-12
6.48328e-14
2.28385e-12
2.83095e-12
8.4002e-13
5.76377e-13
1.65327e-12
3.31152e-13
8.40876e-13
1.85986e-13
5.87291e-13
9.16347e-13
4.03977e-12
9.96189e-13
2.11349e-12
3.48775e-13
5.4904e-13
1.3049e-12
3.62228e-12
1.54251e-13
4.16713e-13
1.13448e-13
6.45464e-13
1.67997e-13
1.68552e-12
2.14048e-12
1.90946e-12
1.72996e-12
1.09846e-12
5.9257e-13
2.4773e-12
2.10091e-12
1.45654e-12
2.18889e-12
3.15981e-12
1.79758e-12
3.40601e-13
4.58049e-13
1.26279e-12
4.33673e-14
6.06535e-13
7.57391e-13
1.71497e-12
1.61127e-12
1.86037e-12
1.82013e-12
9.07953e-13
3.0075e-13
1.55565e-12
5.69153e-13
1.49364e-12
1.14061e-13
2.15496e-12
8.54349e-14
1.40277e-12
9.52183e-13
2.14685e-12
1.03844e-12
2.03323e-12
9.43029e-13
7.83112e-13
2.34594e-12
5.33507e-13
2.6875e-14
1.00243e-12
2.19859e-13
1.21174e-13
2.94035e-12
2.86988e-12
1.55482e-12
2.82834e-12
1.74624e-12
7.12748e-13
1.47397e-12
1.79499e-12
4.27174e-13
6.86734e-13
2.14961e-12
5.63336e-13
1.34324e-13
3.81471e-12
1.17153e-12
1.78726e-12
1.41453e-12
2.19904e-12
2.3732e-13
2.21105e-12
4.12681e-13
1.92887e-13
9.08585e-13
3.62301e-15
1.07866e-12
7.54321e-13
2.64419e-12
1.21959e-12
1.39842e-12
2.85813e-13
1.19078e-12
3.89675e-12
2.21712e-12
1.13614e-13
5.77741e-13
3.84361e-13
3.25156e-12
7.53461e-13
1.8807e-13
6.86124e-13
2.22686e-12
2.5922e-12
1.87969e-12
3.15672e-13
2.25691e-12
2.34509e-13
1.44902e-12
1.46327e-12
2.65058e-12
4.02675e-12
1.23986e-12
2.40172e-12
1.95801e-12
9.61343e-13
4.78097e-16
4.23384e-17
5.67716e-20
4.18637e-14
1.03794e-13
1.11873e-12
4.20478e-12
3.07941e-13
8.37399e-13
2.20225e-12
2.41139e-12
2.14498e-12
1.25078e-12
1.62097e-12
2.27066e-12
4.91671e-13
1.85164e-12
3.76589e-13
1.619e-13
1.2318e-12
2.48586e-12
1.07861e-12
2.55497e-12
1.09719e-12
7.33853e-14
1.67448e-13
2.30714e-12
1.12908e-12
1.25317e-12
8.92731e-15
4.70881e-12
4.1105e-12
1.63642e-12
2.97081e-13
1.28918e-12
1.66977e-12
3.25632e-12
6.37778e-13
1.14856e-12
2.05102e-12
8.54254e-13
2.5973e-14
7.53368e-13
2.94092e-13
9.91597e-13
3.92682e-13
1.18419e-12
1.72212e-12
9.11206e-13
4.49709e-12
2.06858e-12
3.93799e-13
1.6562e-12
1.71678e-12
5.5113e-13
5.69675e-13
2.46983e-13
1.58127e-12
7.24219e-13
2.13704e-12
1.5577e-12
2.80686e-13
1.01499e-12
1.27952e-12
2.87287e-12
2.67274e-12
4.19414e-12
2.39933e-12
9.41533e-14
8.52085e-13
3.69086e-12
2.86759e-12
2.97821e-12
2.9752e-13
1.33309e-13
5.57878e-13
1.71949e-12
9.60924e-13
1.92172e-12
1.22317e-12
2.28582e-12
1.47851e-12
4.45891e-12
1.89546e-12
4.22017e-12
1.48661e-12
2.72069e-12
1.06336e-12
3.70768e-12
1.64701e-12
5.16028e-13
3.07876e-12
1.13329e-12
1.13063e-12
4.33187e-12
2.51717e-12
2.29478e-12
4.81447e-13
1.09967e-13
2.69029e-12
3.50307e-13
1.83837e-12
1.2698e-13
1.25522e-12
2.46073e-12
3.07629e-12
2.34089e-12
5.0482e-12
1.63589e-12
1.71156e-12
2.35826e-12
1.39072e-12
3.89116e-12
7.85278e-14
5.60415e-12
2.08724e-12
4.6509e-12
5.916e-12
3.58109e-12
6.77973e-12
5.64912e-12
5.89105e-12
3.55192e-12
4.71705e-12
2.14632e-12
2.94684e-12
1.88248e-12
2.95448e-14
9.31604e-13
9.28477e-13
3.40131e-12
1.9242e-12
1.08265e-12
2.3873e-12
2.7991e-12
1.27949e-12
1.13843e-12
1.21734e-12
4.95404e-13
3.01377e-12
7.26939e-13
8.76797e-14
7.16859e-13
2.96852e-12
1.89363e-12
1.10049e-12
2.28956e-12
8.19445e-13
6.16462e-12
4.20627e-12
4.27794e-12
5.0942e-12
3.51834e-12
4.8017e-12
2.36843e-12
5.53483e-12
1.63917e-13
6.78911e-13
1.93522e-12
2.34893e-12
1.21751e-12
1.19457e-12
1.96345e-12
1.12863e-12
2.84793e-12
1.24932e-12
4.67103e-13
1.03765e-13
1.56123e-12
1.93258e-12
2.36489e-12
1.05335e-12
1.8605e-12
9.11049e-13
5.1263e-13
4.20433e-13
4.40297e-13
2.79837e-13
6.96205e-13
1.00619e-12
5.8888e-13
3.65372e-14
7.45295e-13
2.0522e-13
1.62101e-12
2.99229e-13
2.89286e-16
2.36378e-17
2.7194e-20
8.54443e-22
1.62356e-19
1.9348e-18
1.67026e-15
1.62165e-21
1.67031e-15
5.38434e-19
5.69001e-14
9.61166e-13
3.53747e-15
1.24247e-13
1.82835e-14
2.79549e-13
2.79832e-13
6.96206e-13
1.00619e-12
5.8888e-13
3.65372e-14
7.45295e-13
2.0522e-13
1.62101e-12
2.99229e-13
2.89286e-16
2.36378e-17
2.7194e-20
8.54262e-22
1.62365e-19
2.0698e-18
1.67372e-15
5.36172e-14
6.14701e-13
2.33953e-12
4.13274e-12
3.17702e-12
3.61002e-12
3.4103e-12
5.77305e-12
4.71593e-12
2.83012e-12
3.77887e-12
6.61034e-12
8.59832e-12
8.14092e-12
8.39104e-12
7.88172e-12
6.57087e-12
8.22343e-12
6.21399e-12
9.35283e-12
9.68364e-12
1.36119e-11
1.26135e-11
)
;

boundaryField
{
    sides
    {
        type            calculated;
        value           nonuniform List<scalar> 2(1.26135e-11 7.86236e-12);
    }
    empty
    {
        type            empty;
    }
}


// ************************************************************************* //
