/*--------------------------------*- C++ -*----------------------------------*\
| =========                 |                                                 |
| \\      /  F ield         | OpenFOAM: The Open Source CFD Toolbox           |
|  \\    /   O peration     | Version:  4.1                                   |
|   \\  /    A nd           | Web:      www.OpenFOAM.org                      |
|    \\/     M anipulation  |                                                 |
\*---------------------------------------------------------------------------*/
FoamFile
{
    version     2.0;
    format      ascii;
    class       surfaceScalarField;
    location    "0.0014";
    object      phi;
}
// * * * * * * * * * * * * * * * * * * * * * * * * * * * * * * * * * * * * * //

dimensions      [1 0 -1 0 0 0 0];

internalField   nonuniform List<scalar> 
999
(
-2.55795e-11
-2.66454e-11
-3.40918e-11
-2.82014e-11
-3.20313e-11
-2.85709e-11
-3.56195e-11
-3.32463e-11
-3.55413e-11
-3.06457e-11
-3.27631e-11
-3.62945e-11
-3.72111e-11
-3.18465e-11
-2.15508e-11
-1.55751e-11
-1.10418e-11
-9.45022e-12
-4.88143e-12
-6.72173e-12
-6.65779e-12
-1.08926e-11
-6.71463e-12
8.52651e-13
4.26326e-14
-1.20792e-13
6.84253e-12
3.91509e-12
-3.19034e-12
-4.86011e-12
-6.85674e-12
-1.31948e-11
-1.9547e-11
-1.60867e-11
-8.53362e-12
-7.77334e-12
-1.58806e-11
-2.35545e-11
-1.9952e-11
-1.33227e-11
-1.32161e-11
-4.3201e-12
1.29319e-12
-4.14246e-12
-1.78346e-12
1.42109e-13
-2.85638e-12
-3.55271e-12
-4.86011e-12
-9.90497e-12
-1.24629e-11
-7.29017e-12
-6.99885e-12
-4.43379e-12
3.89377e-12
4.5759e-12
5.51381e-12
6.0183e-12
3.87956e-12
1.25411e-11
5.94724e-12
-1.40687e-12
-7.0699e-12
-3.11928e-12
2.97007e-12
-4.47642e-13
-7.65965e-12
-8.92442e-12
-1.14824e-11
-6.57963e-12
-2.68585e-12
1.1724e-12
5.87619e-12
8.02913e-13
1.54898e-12
3.17613e-12
3.1477e-12
-3.35376e-12
1.88294e-12
2.38032e-12
3.2685e-13
-7.38964e-13
-4.9738e-13
-2.34479e-13
-1.09424e-12
8.45546e-13
4.28457e-12
9.01679e-12
1.05373e-11
1.0651e-11
1.07363e-11
1.59304e-11
2.03357e-11
1.46869e-11
1.97957e-11
2.34976e-11
2.52953e-11
2.33129e-11
2.72635e-11
2.92815e-11
2.66809e-11
2.0961e-11
1.9547e-11
1.44524e-11
1.31166e-11
8.30624e-12
9.41469e-12
1.39266e-11
1.33014e-11
1.38058e-11
1.78417e-11
1.62004e-11
1.93694e-11
1.52056e-11
1.49356e-11
1.05871e-11
1.11129e-11
1.19229e-11
7.09122e-12
3.07665e-12
3.2685e-13
5.82645e-13
2.94875e-12
2.23821e-12
7.44649e-12
6.58673e-12
1.71241e-12
9.32232e-12
7.31859e-12
-3.12639e-13
4.47642e-13
9.25127e-12
5.15143e-12
4.78195e-12
9.00258e-12
1.41256e-11
1.4758e-11
1.43388e-11
1.70601e-11
1.76357e-11
1.65983e-11
1.54046e-11
1.23848e-11
9.79838e-12
9.27258e-12
5.02354e-12
-1.93268e-12
-7.52465e-12
-1.08855e-11
-9.65628e-12
-1.34861e-11
-1.07789e-11
-1.11768e-11
-1.84102e-11
-1.50848e-11
-1.16884e-11
-1.26406e-11
-9.74865e-12
-3.87956e-12
4.0572e-12
9.70601e-12
6.60094e-12
5.65592e-12
1.81899e-12
-3.69482e-12
-1.36922e-11
-1.98028e-11
-2.31424e-11
-2.5338e-11
-1.67262e-11
-1.39764e-11
-2.04636e-11
-1.58238e-11
-8.18545e-12
-2.79243e-12
-2.20268e-13
-8.95284e-13
-5.39302e-12
1.64135e-12
3.99325e-12
1.66978e-12
6.35225e-12
6.62226e-12
8.41283e-12
1.49214e-11
1.75504e-11
1.28253e-11
8.12861e-12
7.55307e-12
1.01892e-11
6.63647e-12
3.7943e-12
4.68248e-12
6.31672e-12
1.37703e-11
1.6918e-11
1.66835e-11
1.058e-11
3.59535e-12
3.63798e-12
4.83169e-12
8.2494e-12
1.08287e-11
5.51381e-12
8.10729e-12
2.12452e-12
3.48166e-12
6.53699e-12
1.40474e-11
1.50635e-11
1.48148e-11
1.56746e-11
1.13829e-11
6.672e-12
1.355e-11
1.01963e-11
1.17879e-11
1.34222e-11
1.32729e-11
1.11768e-11
1.28679e-11
8.65441e-12
1.4424e-12
1.24345e-12
3.60245e-12
5.21538e-12
9.80549e-13
1.5774e-12
-1.8332e-12
-2.13873e-12
7.4607e-13
-5.96856e-13
3.25429e-12
1.12195e-11
5.18696e-12
1.30314e-11
1.58664e-11
1.14895e-11
7.52465e-12
1.02318e-12
-5.06617e-12
-3.05533e-12
-1.11626e-11
-1.02105e-11
-1.25482e-11
-5.86198e-12
-6.25278e-12
-1.06439e-11
-1.40972e-11
-1.44738e-11
-7.34701e-12
-1.0516e-12
-5.19407e-12
-9.47864e-12
-8.00071e-12
-9.71312e-12
-1.48361e-11
-1.21503e-11
-1.49001e-11
-6.68621e-12
3.19744e-13
-5.24381e-12
-4.00746e-12
3.21165e-12
5.67013e-12
5.62039e-12
7.75202e-12
5.76961e-12
4.39115e-12
4.1922e-12
8.73257e-12
1.45803e-11
1.13403e-11
8.2423e-12
7.16938e-12
9.4218e-12
6.39488e-12
6.16751e-12
5.06617e-12
3.70193e-12
1.13687e-11
3.10507e-12
3.28981e-12
6.29541e-12
1.45448e-11
1.36922e-11
7.25464e-12
7.96518e-12
4.20641e-12
6.10356e-12
5.44276e-12
9.54969e-12
2.46558e-12
-4.61853e-12
1.1795e-12
3.5314e-12
5.13722e-12
9.76996e-12
3.01981e-12
4.61853e-12
3.86535e-12
6.90648e-12
3.12639e-13
-7.17648e-13
2.70006e-13
-4.09983e-12
2.40163e-12
3.44613e-12
-2.06768e-12
-2.359e-12
-1.33582e-12
9.9476e-13
1.5774e-12
-4.81748e-12
-1.85452e-12
6.18172e-13
0
0
0
1.44951e-12
1.62714e-12
-1.62714e-12
-1.44951e-12
-8.88178e-13
-1.07292e-12
1.08002e-12
8.88178e-13
-4.26326e-13
1.91136e-12
3.01981e-12
-2.78533e-12
1.74083e-12
5.27223e-12
-1.56319e-12
-2.28795e-12
-1.33582e-12
9.9476e-13
1.5774e-12
-4.81748e-12
-1.85452e-12
6.18172e-13
0
3.39639e-12
3.21876e-12
-9.45022e-13
2.95586e-12
2.82796e-12
3.78009e-12
9.25127e-12
3.18323e-12
1.10134e-12
4.26326e-14
-1.59162e-12
-1.08002e-12
-6.31672e-12
-4.73932e-12
3.13349e-12
7.03437e-12
5.31486e-12
4.47642e-13
-6.68621e-12
-1.52056e-12
-3.6593e-12
-4.36273e-12
3.38929e-12
1.18661e-11
1.04379e-11
6.32383e-12
1.9611e-12
-4.83169e-12
-5.67013e-12
-4.05009e-12
-4.448e-12
-8.1215e-12
-1.05658e-11
-5.00222e-12
-3.85114e-12
-1.00187e-12
1.02318e-12
-1.52056e-12
-1.46372e-12
0
0
1.15818e-12
2.7498e-12
2.57216e-12
4.25615e-12
5.20117e-12
3.9293e-12
3.82272e-12
4.20641e-12
3.39639e-12
3.21876e-12
2.20268e-13
-2.79243e-12
-1.0516e-12
-2.33058e-12
-2.85638e-12
-9.22995e-12
-7.51044e-12
-5.7554e-12
-3.09797e-12
-5.11591e-13
0
2.13163e-14
8.95284e-13
4.86011e-12
1.92131e-11
6.87237e-11
2.22386e-10
6.93504e-10
2.10578e-09
6.25428e-09
1.82445e-08
5.2349e-08
1.47749e-07
4.10096e-07
1.11913e-06
3.00159e-06
7.90898e-06
2.04641e-05
5.19711e-05
0.00012948
0.000316287
0.000757074
0.00177459
0.0040706
0.0091305
0.0200101
0.0428083
0.0893092
0.181498
0.358851
0.689295
1.28424
2.31656
4.03714
6.78055
10.9415
16.8868
24.6774
34.0057
44.6634
56.4431
69.092
82.3567
96.0101
109.864
123.77
137.617
151.32
164.817
178.062
191.02
203.665
215.977
227.941
239.547
250.785
261.651
272.138
282.244
291.967
301.305
310.256
318.819
326.995
334.782
342.18
349.186
355.806
362.022
367.876
373.269
378.381
382.943
387.239
391.124
394.434
397.689
400.224
402.45
404.595
406
407.14
408.285
408.891
409.15
409.493
409.697
409.706
409.616
409.586
409.587
409.577
409.48
409.393
409.32
409.276
409.202
409.139
409.112
409.095
409.036
408.98
408.941
408.892
408.819
408.769
408.796
408.737
408.653
408.586
408.542
408.49
408.389
408.141
407.939
407.843
407.842
408.22
408.805
408.967
408.505
402.862
379.448
344.893
319.4
301.039
288.785
280.88
276.591
274.702
273.709
272.849
272.656
273.007
273.353
273.204
272.832
272.892
273.395
273.465
272.855
272.766
273.076
273.408
273.139
272.689
272.673
273.067
273.242
272.55
272.393
272.468
272.866
272.753
271.95
271.916
272.049
272.499
271.549
270.818
270.783
271.105
271.416
268.949
268.506
268.672
269.414
269.096
262.928
258.224
252.042
228.925
103.282
33.3956
8.62677
2.08008
0.492043
0.115787
0.0272011
0.00638546
0.00149854
0.000351611
8.24862e-05
1.93471e-05
4.53686e-06
1.06364e-06
2.49299e-07
5.84157e-08
1.36843e-08
3.20473e-09
7.49635e-10
1.74872e-10
4.02078e-11
8.86757e-12
1.6307e-12
-2.07834e-12
-2.90612e-12
-1.00009e-12
8.47322e-13
5.18696e-13
-1.63425e-13
-4.76064e-13
1.35003e-13
2.91323e-13
-4.44089e-13
-1.07825e-12
-2.00551e-12
-7.51399e-13
-6.99885e-13
-3.41061e-13
-3.67706e-13
4.49418e-13
1.99485e-12
2.21512e-12
4.3876e-13
1.06581e-14
6.32383e-13
7.69163e-13
1.97353e-12
1.77458e-12
4.44089e-14
-1.70886e-12
-1.38378e-12
-3.37508e-14
5.25802e-13
-1.1191e-13
-4.65405e-13
-7.38964e-13
-2.61124e-13
-8.41993e-13
-2.31815e-12
-2.16716e-12
-1.95399e-13
7.33635e-13
-1.88294e-13
-3.55271e-13
9.57456e-13
2.00195e-12
1.84208e-12
8.17124e-14
5.09814e-13
5.31131e-13
-4.20997e-13
-3.94351e-13
4.40536e-13
-2.23821e-13
-1.85807e-12
-2.43539e-12
-1.25056e-12
-1.16351e-12
-3.92575e-13
-8.29559e-13
1.12621e-12
1.5099e-12
1.82965e-13
3.48166e-13
-3.35731e-13
-2.8777e-13
-7.74492e-13
-1.76925e-12
-1.91491e-12
-4.9738e-14
3.62377e-13
-8.82849e-13
-1.40865e-12
-1.83142e-12
-3.44613e-13
1.71596e-12
2.18492e-12
2.29505e-12
8.66862e-13
-4.26326e-14
-6.83897e-13
-6.75016e-13
-1.56319e-13
-7.74492e-13
-9.48575e-13
-1.36424e-12
6.92779e-14
4.9738e-14
-4.67182e-13
2.94875e-13
-7.63833e-13
-4.99156e-13
-3.32179e-13
-8.02913e-13
9.87654e-13
8.0469e-13
6.66134e-13
9.13047e-13
1.47438e-12
1.32161e-12
1.3447e-12
1.2772e-12
9.59233e-14
6.11067e-13
8.68638e-13
-2.84217e-13
3.94351e-13
6.14619e-13
1.1191e-13
1.36779e-12
2.54019e-12
1.81366e-12
2.04103e-12
1.8936e-12
4.95604e-13
-9.73444e-13
-1.58096e-12
-8.15348e-13
-6.19949e-13
-1.10845e-12
-1.0747e-12
-2.18492e-13
1.48148e-12
2.5473e-12
1.10667e-12
2.13163e-13
-1.7657e-12
-7.03437e-13
-1.03206e-12
-9.98313e-13
-1.35003e-13
-2.71783e-13
-4.36984e-13
4.72511e-13
1.54543e-13
7.6561e-13
1.77458e-12
-9.23706e-14
-5.27578e-13
-3.32179e-13
-2.4567e-12
-2.78888e-12
-7.81597e-13
-2.98428e-13
-3.03757e-13
1.10134e-12
1.17062e-12
-5.09814e-13
3.44613e-13
1.02141e-12
-1.04805e-13
-2.14584e-12
-5.7554e-13
-1.0516e-12
-7.05214e-13
8.13571e-13
1.12621e-12
-5.82645e-13
7.4607e-13
2.05524e-12
1.71774e-12
1.89182e-12
4.70735e-13
-4.13891e-13
0
0
-1.42109e-14
3.37508e-14
-4.17444e-13
-2.45493e-12
-1.95755e-12
-1.27898e-13
-1.66089e-12
-1.70175e-12
-2.29328e-12
-1.25588e-12
-1.49747e-12
-1.46727e-12
-1.35536e-12
-9.07718e-13
-7.15872e-13
7.99361e-14
-5.3646e-13
4.83169e-13
1.74971e-12
1.37668e-12
1.75682e-12
4.70735e-13
-3.37508e-14
-1.02141e-12
-1.69287e-12
-8.49099e-13
-6.85674e-13
2.01084e-12
4.11582e-12
2.30216e-12
8.65086e-13
7.8515e-13
-2.11386e-13
-2.21867e-12
-1.62181e-12
1.91847e-13
-3.39284e-13
-5.77316e-13
3.25073e-13
4.28102e-13
1.43885e-13
4.33431e-13
1.72307e-13
-9.00613e-13
4.35207e-13
8.98837e-13
2.38209e-12
2.98961e-12
1.22213e-12
7.2653e-13
-5.32907e-15
-4.95604e-13
4.76064e-13
3.16192e-13
7.95808e-13
1.02851e-12
1.3749e-12
1.9007e-13
-4.86722e-13
-3.62377e-13
1.01252e-13
-6.62581e-13
-2.43716e-12
-3.08553e-12
-2.6521e-12
-1.21858e-12
-5.56e-13
-1.6307e-12
-3.18856e-12
-2.26485e-12
-1.82077e-12
-8.88178e-14
-4.56524e-13
-1.03384e-12
-1.01963e-12
-1.36424e-12
-3.03757e-13
1.44063e-12
1.73017e-12
2.44427e-12
2.80131e-12
2.92388e-12
2.27907e-12
1.95932e-12
1.49569e-12
2.26485e-12
8.2423e-13
-8.9706e-13
-1.53833e-12
-1.99307e-12
-9.53904e-13
-2.31282e-12
-3.06244e-12
-1.86695e-12
-1.53122e-12
-1.52767e-13
-1.45661e-12
-1.12443e-12
-1.20082e-12
-6.66134e-13
-7.79821e-13
6.73239e-13
2.37321e-12
2.46914e-12
2.94698e-12
2.89191e-12
1.52056e-12
-2.64677e-13
-1.53477e-12
-2.46381e-12
-1.45128e-12
-2.77289e-12
-2.94342e-12
-3.27383e-12
-4.61498e-12
-4.06963e-12
-4.17621e-12
-5.76605e-12
-4.81215e-12
-4.23483e-12
-3.53317e-12
-2.83862e-12
-2.45315e-12
-1.87406e-12
-6.6791e-13
2.6823e-13
1.03739e-12
1.71418e-12
2.41407e-12
1.26477e-12
1.69464e-12
2.00551e-12
1.85452e-12
1.25056e-12
-1.13687e-13
-2.16716e-13
1.3749e-12
1.00719e-12
-4.36984e-13
3.73035e-13
1.5099e-12
5.27578e-13
-1.41043e-12
4.84945e-13
1.42286e-12
3.18323e-12
4.30411e-12
3.80318e-12
4.14246e-12
3.77121e-12
3.51541e-12
3.18501e-12
3.58646e-12
2.23288e-12
1.82965e-13
-4.45866e-13
1.24345e-13
1.66267e-12
1.42109e-14
2.89546e-13
1.52767e-12
1.45128e-12
9.45022e-13
-4.95604e-13
2.30926e-13
6.50147e-13
1.33227e-12
1.81899e-12
1.66267e-12
1.13687e-12
1.43174e-12
1.01252e-13
1.95399e-14
-4.79616e-14
-2.73559e-13
1.58096e-13
7.74492e-13
8.31335e-13
1.54543e-13
-2.66454e-13
-1.81188e-13
-7.17648e-13
-7.99361e-13
-1.10134e-13
-3.55271e-15
1.77636e-15
0
0
0
0
1.77636e-15
-3.55271e-15
3.55271e-15
-2.84217e-14
3.41061e-13
5.34683e-13
-1.15463e-13
-3.01981e-14
-1.93623e-13
-2.11386e-13
1.58096e-13
7.74492e-13
8.31335e-13
1.54543e-13
-2.66454e-13
-1.81188e-13
-7.17648e-13
-7.99361e-13
-1.10134e-13
-3.55271e-15
1.77636e-15
0
0
0
0
2.84217e-14
2.41585e-13
1.43885e-12
2.70539e-12
3.30402e-12
2.86349e-12
2.89369e-12
4.20286e-12
4.49241e-12
3.10862e-12
2.99316e-12
4.59366e-12
6.47304e-12
7.5584e-12
6.8745e-12
7.01839e-12
6.3114e-12
6.63647e-12
6.1231e-12
7.00418e-12
8.2867e-12
9.96181e-12
1.1374e-11
)
;

boundaryField
{
    sides
    {
        type            calculated;
        value           nonuniform List<scalar> 2(1.09723e-11 2.72587e-11);
    }
    empty
    {
        type            empty;
        value           nonuniform 0();
    }
}


// ************************************************************************* //
