/*--------------------------------*- C++ -*----------------------------------*\
| =========                 |                                                 |
| \\      /  F ield         | OpenFOAM: The Open Source CFD Toolbox           |
|  \\    /   O peration     | Version:  4.1                                   |
|   \\  /    A nd           | Web:      www.OpenFOAM.org                      |
|    \\/     M anipulation  |                                                 |
\*---------------------------------------------------------------------------*/
FoamFile
{
    version     2.0;
    format      ascii;
    class       volScalarField;
    location    "0.0058";
    object      mag(U);
}
// * * * * * * * * * * * * * * * * * * * * * * * * * * * * * * * * * * * * * //

dimensions      [0 1 -1 0 0 0 0];

internalField   nonuniform List<scalar> 
1000
(
1.36683e-11
1.3994e-11
1.55175e-11
1.43283e-11
1.57074e-11
1.66504e-11
1.87607e-11
2.01101e-11
2.06509e-11
2.26453e-11
2.31271e-11
2.45144e-11
2.43415e-11
2.50995e-11
2.2578e-11
2.61476e-11
2.54835e-11
2.9652e-11
2.46784e-11
2.81709e-11
2.18329e-11
2.3966e-11
2.10868e-11
2.34707e-11
2.05325e-11
2.13604e-11
1.82347e-11
1.87408e-11
1.82223e-11
1.56821e-11
1.81077e-11
1.89204e-11
1.67468e-11
1.44799e-11
1.63197e-11
1.31877e-11
1.9281e-11
1.38355e-11
1.50786e-11
9.95007e-12
1.13498e-11
8.10452e-12
1.06993e-11
8.93102e-12
1.3213e-11
7.10387e-12
9.83388e-12
1.00386e-11
1.00645e-11
7.2339e-12
1.12884e-11
8.2282e-12
8.36401e-12
8.59967e-12
8.14602e-12
1.01817e-11
1.14219e-11
1.06075e-11
8.6598e-12
1.02955e-11
7.96301e-12
1.23439e-11
1.26012e-11
1.48239e-11
1.18792e-11
1.6001e-11
1.11331e-11
1.35072e-11
9.44799e-12
1.13379e-11
6.13019e-12
8.75109e-12
4.60161e-12
7.51478e-12
9.30508e-13
3.87207e-12
2.14963e-12
1.57679e-12
6.56264e-13
1.39017e-12
1.81469e-13
2.51814e-12
1.53579e-12
1.1634e-12
2.29204e-12
1.1034e-12
2.19003e-12
2.30733e-12
5.12275e-13
1.23135e-12
4.32336e-12
2.28142e-12
1.74479e-13
7.17523e-12
3.46294e-12
7.98489e-12
7.58237e-12
1.03719e-11
6.76007e-12
7.58928e-12
5.34279e-12
6.96158e-12
8.41073e-12
4.79565e-12
6.48913e-12
3.98079e-12
4.96101e-12
7.18784e-12
6.09267e-12
7.89597e-12
7.24542e-12
7.99434e-12
9.52254e-12
9.62888e-12
1.12766e-11
1.04146e-11
9.30656e-12
9.35853e-12
1.2173e-11
1.18171e-11
1.34828e-11
1.34976e-11
1.36806e-11
1.42518e-11
1.46873e-11
1.64996e-11
1.63665e-11
1.48815e-11
1.25957e-11
1.50364e-11
1.40814e-11
1.31639e-11
1.24651e-11
1.33782e-11
1.23626e-11
1.23341e-11
1.24277e-11
1.19169e-11
1.23099e-11
1.29813e-11
1.35972e-11
1.41405e-11
1.48183e-11
1.51901e-11
1.31122e-11
1.4944e-11
1.60598e-11
1.47867e-11
1.82499e-11
1.82696e-11
2.04324e-11
1.83883e-11
1.91628e-11
1.63422e-11
2.13137e-11
2.10366e-11
1.9589e-11
1.96247e-11
1.86877e-11
2.18196e-11
2.09732e-11
1.99555e-11
1.92098e-11
1.97717e-11
1.95499e-11
1.94237e-11
2.02922e-11
2.12288e-11
2.24245e-11
2.28903e-11
2.54235e-11
2.62357e-11
2.54141e-11
2.81423e-11
2.73725e-11
2.82826e-11
2.59269e-11
2.74196e-11
2.48281e-11
2.59148e-11
2.17919e-11
2.18287e-11
1.92724e-11
1.87767e-11
1.82697e-11
1.89109e-11
1.9987e-11
1.97322e-11
1.74324e-11
1.80121e-11
1.86821e-11
1.43695e-11
1.58394e-11
1.02502e-11
1.4299e-11
1.37675e-11
1.4753e-11
1.16691e-11
1.62158e-11
1.3646e-11
1.67327e-11
1.17537e-11
1.58507e-11
1.55357e-11
1.60766e-11
1.54038e-11
1.49875e-11
1.18074e-11
1.27433e-11
1.43274e-11
1.78359e-11
2.23366e-11
3.34481e-11
6.30898e-11
1.17927e-10
2.37933e-10
4.66089e-10
9.32919e-10
1.84221e-09
3.6342e-09
7.10075e-09
1.37955e-08
2.6593e-08
5.09135e-08
9.67576e-08
1.82556e-07
3.41873e-07
6.35447e-07
1.17215e-06
2.14553e-06
3.89652e-06
7.02039e-06
1.25467e-05
2.22394e-05
3.90911e-05
6.81288e-05
0.00011771
0.00020158
0.000342108
0.000575275
0.000958296
0.00158104
0.00258292
0.00417731
0.00668638
0.0105895
0.0165889
0.0256974
0.0393492
0.0595393
0.0889862
0.131314
0.191241
0.274741
0.389161
0.543216
0.746828
1.01072
1.34568
1.76141
2.26464
2.85657
3.5317
4.28113
5.09659
5.97143
6.89988
7.87651
8.89611
9.95379
11.045
12.1657
13.3122
14.4813
15.6703
16.8767
18.0986
19.3341
20.5816
21.84
23.1081
24.3849
25.6696
26.9614
28.2597
29.564
30.8737
32.1885
33.5078
34.8315
36.1591
37.4903
38.825
40.1629
41.5038
42.8475
44.1938
45.5426
46.8936
48.2469
49.6022
50.9594
52.3184
53.6792
55.0416
56.4055
57.7708
59.1375
60.5055
61.8747
63.245
64.6164
65.9888
67.3622
68.7364
70.1114
71.4872
72.8638
74.241
75.6188
76.9971
78.376
79.7553
81.1351
82.5152
83.8956
85.2763
86.6573
88.0384
89.4197
90.801
92.1824
93.5639
94.9453
96.3266
97.7077
99.0888
100.47
101.85
103.23
104.61
105.99
107.369
108.747
110.125
111.502
112.879
114.255
115.63
117.004
118.378
119.75
121.121
122.492
123.861
125.229
126.595
127.96
129.324
130.686
132.046
133.405
134.761
136.116
137.468
138.819
140.167
141.512
142.855
144.195
145.532
146.866
148.197
149.524
150.847
152.167
153.482
154.793
156.099
157.4
158.696
159.986
161.271
162.549
163.82
165.084
166.34
167.588
168.827
170.057
171.277
172.486
173.684
174.869
176.042
177.2
178.344
179.471
180.581
181.672
182.743
183.793
184.82
185.823
186.799
187.748
188.667
189.554
190.408
191.225
192.005
192.746
193.444
194.1
194.711
195.275
195.793
196.263
196.685
197.059
197.388
197.671
197.911
198.112
198.275
198.404
198.505
198.579
198.631
198.666
198.687
198.697
198.699
198.7
198.7
198.699
198.696
198.689
198.677
198.663
198.648
198.634
198.622
198.614
198.607
198.602
198.598
198.595
198.593
198.592
198.591
198.59
198.589
198.589
198.588
198.588
198.587
198.586
198.585
198.585
198.584
198.583
198.583
198.582
198.582
198.581
198.58
198.58
198.579
198.579
198.578
198.578
198.577
198.577
198.576
198.575
198.575
198.574
198.574
198.573
198.573
198.572
198.572
198.571
198.571
198.57
198.569
198.569
198.568
198.568
198.568
198.567
198.567
198.566
198.566
198.565
198.565
198.564
198.564
198.563
198.563
198.562
198.562
198.561
198.561
198.56
198.56
198.559
198.559
198.558
198.558
198.557
198.557
198.557
198.556
198.556
198.555
198.555
198.555
198.555
198.554
198.554
198.554
198.554
198.553
198.553
198.553
198.553
198.552
198.552
198.552
198.552
198.552
198.551
198.551
198.551
198.551
198.551
198.551
198.551
198.55
198.55
198.55
198.55
198.55
198.549
198.549
198.549
198.549
198.549
198.548
198.548
198.548
198.548
198.547
198.547
198.547
198.547
198.547
198.546
198.546
198.546
198.546
198.545
198.545
198.545
198.545
198.545
198.544
198.544
198.544
198.544
198.543
198.543
198.543
198.543
198.542
198.542
198.542
198.542
198.542
198.541
198.541
198.541
198.541
198.541
198.541
198.54
198.54
198.54
198.54
198.54
198.54
198.539
198.54
198.54
198.54
198.54
198.539
198.539
198.539
198.538
198.538
198.538
198.536
198.537
198.541
198.55
198.57
198.628
198.766
198.835
198.739
198.618
198.53
198.479
198.47
198.495
198.515
198.512
198.506
198.527
198.548
198.538
198.517
198.523
198.547
198.55
198.525
198.514
198.54
198.559
198.537
198.51
198.526
198.556
198.547
198.514
198.509
198.538
198.552
198.527
198.504
198.521
198.549
198.539
198.508
198.509
198.541
198.548
198.517
198.5
198.528
198.552
198.532
198.501
198.512
198.546
198.546
198.512
198.499
198.529
198.551
198.527
198.499
198.513
198.545
198.54
198.506
198.501
198.534
198.548
198.518
198.495
198.518
198.55
198.534
198.497
198.502
198.54
198.545
198.508
198.491
198.523
198.552
198.528
198.492
198.501
198.539
198.542
198.507
198.491
198.521
198.546
198.522
198.489
198.503
198.539
198.536
198.498
198.489
198.522
198.543
198.514
198.484
198.504
198.54
198.527
198.487
198.488
198.527
198.538
198.5
198.475
198.506
198.539
198.517
198.476
198.484
198.525
198.53
198.489
198.469
198.501
198.53
198.504
198.465
198.478
198.517
198.514
198.471
198.457
198.494
198.516
198.482
198.444
198.463
198.501
198.49
198.444
198.434
198.471
198.487
198.447
198.412
198.433
198.467
198.446
198.397
198.392
198.427
198.432
198.386
198.351
198.373
198.398
198.366
198.315
198.31
198.339
198.331
198.275
198.24
198.257
198.268
198.221
198.164
198.158
198.175
198.144
198.074
198.037
198.043
198.031
197.962
197.894
197.874
197.867
197.81
197.722
197.666
197.643
197.597
197.497
197.401
197.344
197.293
197.187
197.045
196.94
196.87
196.761
196.573
196.396
196.28
196.164
195.933
195.646
195.432
195.264
194.996
194.577
194.186
193.915
193.608
192.979
192.183
191.549
190.768
188.859
184.123
172.399
133.344
62.9133
17.618
4.44596
1.06867
0.253794
0.0600968
0.0142194
0.00336328
0.000795412
0.000188103
4.44827e-05
1.05191e-05
2.48751e-06
5.88227e-07
1.391e-07
3.28947e-08
7.78032e-09
1.84273e-09
4.38003e-10
1.06824e-10
2.848e-11
1.12194e-11
5.36587e-12
5.96115e-12
4.95867e-12
4.24177e-12
5.81858e-12
4.48717e-12
7.42304e-12
4.353e-12
7.72141e-12
5.88781e-12
9.34445e-12
7.38922e-12
1.07331e-11
1.0426e-11
1.18665e-11
8.96326e-12
1.09653e-11
1.05418e-11
7.78067e-12
1.0411e-11
9.74685e-12
7.68996e-12
9.21463e-12
7.75591e-12
7.23973e-12
6.93575e-12
8.74033e-12
7.07684e-12
5.64108e-12
5.62535e-12
4.90624e-12
4.27948e-12
3.46215e-12
6.67293e-12
7.10342e-12
8.65312e-12
6.5956e-12
7.66362e-12
6.07264e-12
6.88648e-12
5.59696e-12
7.38006e-12
1.07878e-11
1.01881e-11
1.44874e-11
1.48671e-11
1.63786e-11
1.76573e-11
1.91037e-11
2.1223e-11
2.15752e-11
2.49288e-11
2.43746e-11
2.6171e-11
2.63028e-11
2.60106e-11
2.51966e-11
2.18319e-11
2.12173e-11
1.94631e-11
2.00452e-11
1.88359e-11
2.03934e-11
1.78464e-11
1.80278e-11
1.84695e-11
1.61847e-11
1.51329e-11
1.82579e-11
1.94736e-11
2.18932e-11
2.16269e-11
2.48635e-11
2.36944e-11
2.38485e-11
2.22764e-11
2.31027e-11
2.16666e-11
2.1906e-11
2.21505e-11
2.01388e-11
2.048e-11
1.96798e-11
2.04016e-11
2.01204e-11
2.16638e-11
2.37615e-11
2.51633e-11
2.43441e-11
2.7556e-11
2.70777e-11
2.8215e-11
2.49813e-11
2.73469e-11
2.35399e-11
2.55026e-11
2.40011e-11
2.5323e-11
2.68864e-11
2.78615e-11
2.58204e-11
2.49965e-11
2.46026e-11
2.60336e-11
2.64848e-11
2.55722e-11
2.79876e-11
2.78849e-11
2.89402e-11
3.16732e-11
3.07587e-11
3.39284e-11
3.02026e-11
3.10147e-11
3.05306e-11
3.16503e-11
2.87792e-11
2.92494e-11
3.07319e-11
3.06041e-11
3.0918e-11
3.02767e-11
2.79378e-11
2.64728e-11
2.73932e-11
2.72179e-11
2.61085e-11
2.42023e-11
2.68737e-11
2.57782e-11
2.53163e-11
2.59333e-11
2.7719e-11
2.92581e-11
3.2309e-11
3.1266e-11
3.29075e-11
3.01447e-11
2.91504e-11
2.63713e-11
2.73834e-11
2.5193e-11
2.60061e-11
2.5161e-11
2.36001e-11
2.34633e-11
2.35862e-11
2.37506e-11
2.33791e-11
2.40719e-11
2.18809e-11
2.15289e-11
2.16266e-11
2.45591e-11
2.33097e-11
2.43939e-11
2.26775e-11
2.30331e-11
2.04009e-11
2.22051e-11
1.97886e-11
2.51823e-11
2.13102e-11
2.22851e-11
2.25744e-11
)
;

boundaryField
{
    sides
    {
        type            calculated;
        value           nonuniform List<scalar> 2(2.25744e-11 1.36683e-11);
    }
    empty
    {
        type            empty;
    }
}


// ************************************************************************* //
