/*--------------------------------*- C++ -*----------------------------------*\
| =========                 |                                                 |
| \\      /  F ield         | OpenFOAM: The Open Source CFD Toolbox           |
|  \\    /   O peration     | Version:  4.1                                   |
|   \\  /    A nd           | Web:      www.OpenFOAM.org                      |
|    \\/     M anipulation  |                                                 |
\*---------------------------------------------------------------------------*/
FoamFile
{
    version     2.0;
    format      ascii;
    class       volScalarField;
    location    "0.0058";
    object      p;
}
// * * * * * * * * * * * * * * * * * * * * * * * * * * * * * * * * * * * * * //

dimensions      [1 -1 -2 0 0 0 0];

internalField   nonuniform List<scalar> 
1000
(
100000
100000
100000
100000
100000
100000
100000
100000
100000
100000
100000
100000
100000
100000
100000
100000
100000
100000
100000
100000
100000
100000
100000
100000
100000
100000
100000
100000
100000
100000
100000
100000
100000
100000
100000
100000
100000
100000
100000
100000
100000
100000
100000
100000
100000
100000
100000
100000
100000
100000
100000
100000
100000
100000
100000
100000
100000
100000
100000
100000
100000
100000
100000
100000
100000
100000
100000
100000
100000
100000
100000
100000
100000
100000
100000
100000
100000
100000
100000
100000
100000
100000
100000
100000
100000
100000
100000
100000
100000
100000
100000
100000
100000
100000
100000
100000
100000
100000
100000
100000
100000
100000
100000
100000
100000
100000
100000
100000
100000
100000
100000
100000
100000
100000
100000
100000
100000
100000
100000
100000
100000
100000
100000
100000
100000
100000
100000
100000
100000
100000
100000
100000
100000
100000
100000
100000
100000
100000
100000
100000
100000
100000
100000
100000
100000
100000
100000
100000
100000
100000
100000
100000
100000
100000
100000
100000
100000
100000
100000
100000
100000
100000
100000
100000
100000
100000
100000
100000
100000
100000
100000
100000
100000
100000
100000
100000
100000
100000
100000
100000
100000
100000
100000
100000
100000
100000
100000
100000
100000
100000
100000
100000
100000
100000
100000
100000
100000
100000
100000
100000
100000
100000
100000
100000
100000
100000
100000
100000
100000
100000
100000
100000
100000
100000
100000
100000
100000
100000
100000
100000
100000
100000
100000
100000
100000
100000
100000
100000
100000
100000
100000
100000
100000
100000
100000
100000
100000
99999.9
99999.9
99999.8
99999.7
99999.5
99999.1
99998.6
99997.7
99996.3
99994.3
99991.1
99986.4
99979.4
99969.2
99954.5
99933.7
99904.8
99865
99811.5
99740.8
99649.1
99532.6
99388
99212.9
99006.9
98772.2
98512.4
98230.7
97929.4
97610.6
97276.3
96928.5
96568.8
96199.1
95820.7
95435
95043.2
94646.1
94244.8
93839.8
93432
93021.7
92609.4
92195.7
91780.7
91364.8
90948.3
90531.3
90114.2
89696.9
89279.8
88862.9
88446.4
88030.3
87614.8
87199.9
86785.7
86372.4
85959.8
85548.2
85137.6
84727.9
84319.3
83911.8
83505.5
83100.2
82696.2
82293.4
81891.8
81491.5
81092.5
80694.8
80298.5
79903.5
79509.8
79117.5
78726.7
78337.2
77949.2
77562.6
77177.4
76793.8
76411.5
76030.8
75651.5
75273.8
74897.5
74522.8
74149.6
73777.9
73407.8
73039.1
72672.1
72306.6
71942.6
71580.3
71219.5
70860.3
70502.6
70146.6
69792.1
69439.3
69088
68738.4
68390.4
68044
67699.3
67356.2
67014.7
66674.8
66336.7
66000.1
65665.3
65332.1
65000.6
64670.8
64342.7
64016.3
63691.6
63368.6
63047.4
62727.9
62410.2
62094.2
61780
61467.6
61157
60848.3
60541.4
60236.3
59933.1
59631.8
59332.5
59035
58739.6
58446.1
58154.6
57865.2
57577.9
57292.7
57009.7
56728.9
56450.3
56174
55900.1
55628.5
55359.5
55092.9
54829
54567.7
54309.2
54053.5
53800.7
53551.1
53304.5
53061.3
52821.4
52585.2
52352.5
52123.9
51899.1
51678.9
51462.7
51251.6
51045.1
50843.9
50648.1
50457.9
50273.8
50095.8
49924.7
49760.3
49603.2
49453.8
49312.1
49178.7
49053.8
48937.5
48830.2
48731.8
48642.5
48562.6
48491.4
48429.1
48375.3
48329.6
48291.5
48260.2
48235.5
48216.3
48202.1
48191.6
48185
48180.9
48178.6
48178.2
48178.2
48178.3
48178.6
48179.2
48180.1
48182
48184.7
48187.4
48189.8
48191.9
48193.7
48195.1
48196
48196.7
48197.2
48197.5
48197.8
48198
48198.1
48198.2
48198.4
48198.5
48198.6
48198.7
48198.8
48198.9
48199
48199.1
48199.2
48199.3
48199.4
48199.5
48199.6
48199.7
48199.8
48199.9
48200
48200.1
48200.2
48200.3
48200.4
48200.5
48200.5
48200.6
48200.7
48200.8
48200.9
48201
48201
48201.1
48201.2
48201.3
48201.3
48201.4
48201.5
48201.6
48201.6
48201.7
48201.8
48201.9
48201.9
48202
48202.1
48202.2
48202.3
48202.3
48202.4
48202.5
48202.6
48202.6
48202.7
48202.8
48202.8
48202.9
48203
48203.1
48203.1
48203.2
48203.2
48203.3
48203.3
48203.4
48203.4
48203.5
48203.5
48203.6
48203.6
48203.6
48203.7
48203.7
48203.7
48203.7
48203.8
48203.8
48203.8
48203.8
48203.8
48203.8
48203.8
48203.8
48203.8
48203.8
48203.9
48203.9
48203.9
48203.9
48203.9
48203.9
48203.9
48203.9
48203.9
48204
48204
48204
48204
48204
48204.1
48204.1
48204.1
48204.1
48204.1
48204.2
48204.2
48204.2
48204.2
48204.3
48204.3
48204.3
48204.3
48204.3
48204.3
48204.3
48204.3
48204.3
48204.4
48204.3
48204.3
48204.4
48204.4
48204.4
48204.4
48204.4
48204.4
48204.4
48204.4
48204.4
48204.4
48204.4
48204.3
48204.3
48204.3
48204.4
48204.4
48204.3
48204.3
48204.2
48204.3
48204.4
48204.3
48204.3
48204.2
48204.3
48204.3
48204.3
48204.2
48204.2
48204.2
48204.2
48204.2
48204.3
48204.1
48203.8
48204
48204.5
48205.4
48205.5
48206.2
48208.2
48207.9
48197.8
48205.4
48205.4
48196.8
48199.1
48210.9
48212.2
48201.9
48197.8
48206.7
48213.2
48205.9
48196.6
48200.4
48212.7
48211.9
48197.8
48195.5
48209.9
48215.7
48202.6
48193.2
48202.8
48215.9
48211
48195.3
48196
48211.6
48215.1
48201.7
48193.9
48203.8
48215.3
48209.3
48194.4
48197
48213.4
48214.3
48198
48193.3
48207.9
48216.4
48205.3
48192.8
48199.6
48215.1
48213.2
48196.1
48193.6
48209.2
48216.1
48203.7
48192.7
48201.1
48215.2
48211.2
48194.7
48194.9
48211.7
48215.4
48199.5
48191.8
48205.2
48216.8
48207.6
48192.2
48196.7
48214.8
48214.6
48195.5
48191.3
48208.8
48217.7
48204.7
48191.2
48197.6
48214.8
48213.9
48195.5
48191.9
48208.6
48216.4
48203.1
48191.1
48199.7
48215.4
48211.9
48193.4
48192.3
48210.7
48216.1
48199.8
48190.3
48202.6
48216.2
48208.4
48190.7
48193.7
48213.8
48215.4
48195.1
48188.7
48206.1
48217.1
48204.5
48188.8
48194.9
48214.4
48213.7
48192.6
48188.3
48206.8
48216
48201.4
48187.5
48196.1
48214
48210.5
48189.4
48187.7
48208.1
48214.5
48196.2
48184.8
48196.7
48212.9
48206.3
48185.6
48185.9
48206.7
48211.1
48190.9
48181.3
48195.3
48209.4
48199.2
48180.1
48182.6
48203.1
48204.6
48182.1
48175
48190.3
48202.1
48187.9
48170.9
48174.9
48193.8
48191.9
48168.4
48163.5
48179.3
48187.9
48168.6
48154.4
48160.3
48176.5
48168.2
48144.5
48141.9
48156.7
48160.8
48135.6
48124.9
48129.3
48141.5
48126.8
48104.4
48101.1
48108.8
48109.6
48079.5
48068.7
48067.8
48075.6
48053.3
48024.9
48018.4
48021.8
48017.6
47965.1
47947.2
47944.1
47952.5
47898.3
47848.9
47837.3
47845.1
47819.9
47712.4
47677.2
47669.4
47675.4
47527.3
47421.9
47368.1
47298.5
47160.4
46521.8
44905.8
40523
30091.4
26461
25363.2
25087
25020.6
25004.9
25001.2
25000.3
25000.1
25000
25000
25000
25000
25000
25000
25000
25000
25000
25000
25000
25000
25000
25000
25000
25000
25000
25000
25000
25000
25000
25000
25000
25000
25000
25000
25000
25000
25000
25000
25000
25000
25000
25000
25000
25000
25000
25000
25000
25000
25000
25000
25000
25000
25000
25000
25000
25000
25000
25000
25000
25000
25000
25000
25000
25000
25000
25000
25000
25000
25000
25000
25000
25000
25000
25000
25000
25000
25000
25000
25000
25000
25000
25000
25000
25000
25000
25000
25000
25000
25000
25000
25000
25000
25000
25000
25000
25000
25000
25000
25000
25000
25000
25000
25000
25000
25000
25000
25000
25000
25000
25000
25000
25000
25000
25000
25000
25000
25000
25000
25000
25000
25000
25000
25000
25000
25000
25000
25000
25000
25000
25000
25000
25000
25000
25000
25000
25000
25000
25000
25000
25000
25000
25000
25000
25000
25000
25000
25000
25000
25000
25000
25000
25000
25000
25000
25000
25000
25000
25000
25000
25000
25000
25000
25000
25000
25000
25000
25000
25000
25000
25000
25000
25000
25000
25000
25000
25000
25000
25000
25000
25000
25000
25000
25000
25000
25000
25000
)
;

boundaryField
{
    sides
    {
        type            zeroGradient;
    }
    empty
    {
        type            empty;
    }
}


// ************************************************************************* //
