/*--------------------------------*- C++ -*----------------------------------*\
| =========                 |                                                 |
| \\      /  F ield         | OpenFOAM: The Open Source CFD Toolbox           |
|  \\    /   O peration     | Version:  4.1                                   |
|   \\  /    A nd           | Web:      www.OpenFOAM.org                      |
|    \\/     M anipulation  |                                                 |
\*---------------------------------------------------------------------------*/
FoamFile
{
    version     2.0;
    format      ascii;
    class       surfaceScalarField;
    location    "0.0058";
    object      phi;
}
// * * * * * * * * * * * * * * * * * * * * * * * * * * * * * * * * * * * * * //

dimensions      [1 0 -1 0 0 0 0];

internalField   nonuniform List<scalar> 
999
(
-4.84093e-11
-5.15072e-11
-5.12586e-11
-5.10667e-11
-5.66658e-11
-6.02398e-11
-6.8809e-11
-7.17577e-11
-7.42446e-11
-7.81313e-11
-8.5933e-11
-8.34461e-11
-8.7276e-11
-8.04832e-11
-8.54072e-11
-8.98197e-11
-9.7657e-11
-9.39337e-11
-9.1319e-11
-8.70628e-11
-8.14921e-11
-7.56231e-11
-7.78826e-11
-7.7307e-11
-7.16653e-11
-7.01519e-11
-6.37002e-11
-6.48939e-11
-5.81935e-11
-5.884e-11
-6.37215e-11
-6.25846e-11
-5.37383e-11
-5.45413e-11
-5.01288e-11
-5.60192e-11
-5.92095e-11
-5.01217e-11
-4.25899e-11
-3.71116e-11
-3.2756e-11
-3.42055e-11
-3.32179e-11
-3.84475e-11
-3.56621e-11
-2.86136e-11
-3.5584e-11
-3.53992e-11
-2.98144e-11
-3.13207e-11
-3.50369e-11
-2.93454e-11
-2.86775e-11
-2.98712e-11
-3.282e-11
-3.66924e-11
-3.87246e-11
-3.32889e-11
-3.25784e-11
-3.13776e-11
-3.64579e-11
-4.18865e-11
-4.94254e-11
-4.58726e-11
-4.69527e-11
-4.72156e-11
-4.28315e-11
-4.07709e-11
-3.59819e-11
-2.88409e-11
-2.69367e-11
-2.30358e-11
-2.09113e-11
-1.47438e-11
-7.79465e-12
-3.48876e-12
1.25766e-12
-1.79057e-12
3.91509e-12
2.01084e-12
-5.47118e-12
-6.06803e-12
-5.37881e-12
-5.56355e-12
-5.47828e-12
-5.6275e-12
9.23706e-14
3.6593e-12
1.14397e-12
-5.04485e-12
-3.91509e-12
4.61142e-12
1.29177e-11
1.88862e-11
1.93694e-11
2.5544e-11
3.25286e-11
3.05533e-11
2.5139e-11
2.25029e-11
2.03713e-11
2.81943e-11
2.20766e-11
1.95328e-11
1.79696e-11
1.60583e-11
2.0421e-11
2.4329e-11
2.32987e-11
2.73985e-11
2.51177e-11
3.21378e-11
3.17897e-11
3.77014e-11
3.70761e-11
3.51861e-11
3.25997e-11
3.57971e-11
4.29097e-11
4.35847e-11
4.63061e-11
4.74216e-11
4.92832e-11
4.90346e-11
5.28289e-11
5.95151e-11
5.42428e-11
4.64908e-11
4.77627e-11
4.95248e-11
4.98517e-11
4.23768e-11
4.46292e-11
4.63629e-11
4.1851e-11
4.37055e-11
4.16946e-11
4.24123e-11
4.30944e-11
4.81108e-11
4.72582e-11
4.90417e-11
5.43636e-11
4.76703e-11
4.94822e-11
5.45626e-11
5.34897e-11
5.61755e-11
6.36931e-11
6.89937e-11
6.70468e-11
6.62226e-11
6.0318e-11
6.64855e-11
7.46851e-11
7.12532e-11
6.6585e-11
6.7196e-11
7.11964e-11
7.45288e-11
7.28093e-11
6.53628e-11
6.81553e-11
7.0159e-11
6.60094e-11
7.02371e-11
7.10898e-11
7.76552e-11
7.69518e-11
8.37588e-11
9.09495e-11
8.82352e-11
9.45377e-11
9.67262e-11
9.72449e-11
9.38059e-11
9.13829e-11
9.06226e-11
8.94076e-11
8.32259e-11
7.61489e-11
7.08624e-11
6.6926e-11
6.48654e-11
6.36646e-11
6.672e-11
7.10969e-11
6.31246e-11
6.11564e-11
6.39275e-11
5.91029e-11
5.16067e-11
4.53468e-11
4.21849e-11
4.78479e-11
5.09885e-11
4.58797e-11
4.71516e-11
5.3376e-11
5.12728e-11
5.09885e-11
4.71445e-11
5.47047e-11
5.53158e-11
5.51452e-11
5.39018e-11
4.56311e-11
4.18723e-11
4.61284e-11
5.63176e-11
6.84253e-11
9.22e-11
1.60568e-10
3.01483e-10
5.90937e-10
1.17056e-09
2.32671e-09
4.61894e-09
9.12223e-09
1.78936e-08
3.48579e-08
6.74211e-08
1.29479e-07
2.46875e-07
4.67301e-07
8.78045e-07
1.63755e-06
3.03104e-06
5.56746e-06
1.01472e-05
1.83485e-05
3.29133e-05
5.85596e-05
0.000103329
0.00018079
0.000313613
0.000539271
0.000919052
0.00155208
0.00259685
0.00430375
0.00706355
0.0114782
0.0184626
0.0293875
0.0462768
0.0720712
0.110973
0.168878
0.253905
0.376994
0.552552
0.799078
1.13965
1.60213
2.21891
3.02591
4.06065
5.35904
6.95054
8.8507
11.0493
13.5114
16.2012
19.0909
22.1576
25.3802
28.7385
32.2134
35.7871
39.4437
43.1687
46.9496
50.7755
54.637
58.526
62.4356
66.3599
70.2939
74.2332
78.1742
82.1136
86.0486
89.977
93.8965
97.8055
101.702
105.585
109.454
113.306
117.142
120.959
124.759
128.539
132.299
136.039
139.758
143.456
147.132
150.787
154.419
158.028
161.614
165.178
168.718
172.234
175.727
179.196
182.642
186.063
189.459
192.832
196.18
199.504
202.803
206.078
209.328
212.554
215.755
218.931
222.082
225.209
228.31
231.387
234.44
237.467
240.47
243.448
246.401
249.329
252.233
255.112
257.966
260.796
263.601
266.381
269.137
271.868
274.575
277.257
279.915
282.549
285.158
287.742
290.303
292.839
295.351
297.839
300.302
302.742
305.157
307.549
309.916
312.259
314.579
316.874
319.146
321.394
323.618
325.818
327.994
330.147
332.276
334.381
336.462
338.519
340.553
342.563
344.55
346.512
348.451
350.365
352.256
354.123
355.966
357.785
359.579
361.35
363.096
364.817
366.514
368.186
369.833
371.454
373.051
374.622
376.167
377.685
379.178
380.642
382.082
383.49
384.876
386.223
387.557
388.84
390.118
391.337
392.548
393.716
394.839
395.965
396.994
398.061
399.023
399.982
400.915
401.744
402.618
403.379
404.111
404.845
405.449
406.075
406.643
407.111
407.605
408.012
408.349
408.703
408.97
409.184
409.408
409.562
409.672
409.792
409.866
409.906
409.95
409.978
409.985
409.984
409.986
409.985
409.981
409.979
409.974
409.965
409.951
409.938
409.925
409.912
409.903
409.897
409.891
409.886
409.883
409.879
409.876
409.874
409.873
409.871
409.869
409.868
409.867
409.865
409.864
409.862
409.859
409.858
409.856
409.855
409.853
409.852
409.85
409.848
409.846
409.845
409.843
409.841
409.84
409.838
409.836
409.834
409.832
409.83
409.828
409.827
409.825
409.823
409.821
409.819
409.817
409.815
409.813
409.811
409.809
409.807
409.805
409.803
409.801
409.799
409.797
409.795
409.793
409.791
409.788
409.786
409.784
409.781
409.779
409.777
409.774
409.771
409.769
409.767
409.764
409.761
409.759
409.757
409.754
409.75
409.748
409.746
409.743
409.739
409.737
409.735
409.732
409.728
409.725
409.723
409.72
409.716
409.712
409.71
409.708
409.704
409.699
409.696
409.694
409.691
409.686
409.681
409.678
409.676
409.671
409.666
409.661
409.658
409.655
409.651
409.644
409.638
409.634
409.632
409.627
409.621
409.613
409.607
409.604
409.6
409.594
409.586
409.577
409.57
409.566
409.562
409.557
409.547
409.535
409.524
409.517
409.513
409.507
409.5
409.487
409.471
409.458
409.451
409.447
409.442
409.431
409.412
409.392
409.373
409.363
409.358
409.353
409.342
409.314
409.284
409.257
409.244
409.237
409.229
409.213
409.179
409.135
409.093
409.054
409.024
409.008
409.001
408.99
408.961
408.869
408.751
408.641
408.551
408.487
408.452
408.448
408.457
408.523
408.678
408.79
408.835
408.842
408.187
403.1
384.408
363.026
343.686
326.973
313.289
302.755
294.495
288.125
283.295
280.029
277.957
276.349
274.995
274.267
274.109
273.905
273.502
273.231
273.328
273.574
273.462
273.1
273.114
273.519
273.565
273.187
273.083
273.355
273.56
273.426
273.117
273.161
273.529
273.56
273.169
273.087
273.436
273.595
273.344
273.085
273.244
273.584
273.534
273.131
273.101
273.523
273.622
273.279
273.084
273.293
273.598
273.513
273.131
273.129
273.544
273.614
273.229
273.091
273.382
273.619
273.437
273.102
273.184
273.596
273.611
273.152
273.071
273.504
273.659
273.335
273.066
273.259
273.636
273.588
273.134
273.076
273.529
273.652
273.323
273.088
273.273
273.619
273.554
273.131
273.104
273.565
273.657
273.246
273.073
273.346
273.637
273.502
273.11
273.137
273.595
273.649
273.159
273.047
273.47
273.677
273.392
273.058
273.195
273.635
273.626
273.117
273.038
273.533
273.683
273.318
273.045
273.234
273.635
273.579
273.095
273.049
273.561
273.674
273.22
273.017
273.304
273.646
273.501
273.048
273.055
273.569
273.651
273.134
272.986
273.335
273.628
273.415
273.003
273.056
273.548
273.59
273.042
272.936
273.356
273.583
273.268
272.925
273.034
273.488
273.475
272.939
272.862
273.303
273.486
273.055
272.801
272.955
273.359
273.251
272.747
272.712
273.167
273.285
272.704
272.571
272.773
273.12
272.844
272.432
272.426
272.807
272.875
272.258
272.188
272.301
272.605
272.22
271.853
271.863
272.079
272.143
271.361
271.281
271.385
271.743
270.986
270.494
270.53
270.888
270.841
269.402
269.271
269.481
270.071
268.083
267.421
267.547
268.353
267.3
264.548
264.261
264.359
264.679
259.541
246.001
220.205
101.877
33.362
8.68046
2.10318
0.5001
0.118451
0.02803
0.00663072
0.00156823
0.000370874
8.77052e-05
2.07404e-05
4.90462e-06
1.15981e-06
2.74264e-07
6.48567e-08
1.53381e-08
3.62885e-09
8.60215e-10
2.05668e-10
5.12248e-11
1.50919e-11
6.83009e-12
4.99334e-12
4.39293e-12
4.06075e-12
4.49241e-12
4.29168e-12
5.56e-12
5.08926e-12
4.92939e-12
5.7625e-12
7.01839e-12
7.05924e-12
7.63656e-12
9.67049e-12
9.51061e-12
8.91731e-12
8.37019e-12
9.53904e-12
8.20854e-12
7.81952e-12
8.74856e-12
7.43938e-12
6.96332e-12
7.8888e-12
6.27054e-12
6.39488e-12
6.6116e-12
6.73417e-12
5.7323e-12
5.08038e-12
4.14957e-12
4.39648e-12
3.26494e-12
4.54037e-12
5.75184e-12
7.12141e-12
6.33982e-12
6.42153e-12
6.10179e-12
5.42677e-12
5.52092e-12
5.6275e-12
7.60991e-12
9.46265e-12
1.07256e-11
1.25233e-11
1.38662e-11
1.45572e-11
1.6227e-11
1.73763e-11
1.8737e-11
2.00728e-11
2.14122e-11
2.22968e-11
2.21974e-11
2.33644e-11
2.21032e-11
2.06164e-11
1.83551e-11
1.78861e-11
1.7053e-11
1.695e-11
1.71809e-11
1.69713e-11
1.51381e-11
1.62235e-11
1.51505e-11
1.32641e-11
1.43654e-11
1.64864e-11
1.83746e-11
1.84546e-11
2.04725e-11
2.09788e-11
2.09841e-11
2.01474e-11
1.90106e-11
2.01688e-11
1.85469e-11
1.90514e-11
1.87352e-11
1.73248e-11
1.75149e-11
1.74225e-11
1.79039e-11
1.78062e-11
1.98224e-11
2.15419e-11
2.10427e-11
2.30358e-11
2.36238e-11
2.36984e-11
2.35723e-11
2.25047e-11
2.23874e-11
2.08775e-11
2.18403e-11
2.10321e-11
2.29203e-11
2.42366e-11
2.29186e-11
2.20162e-11
2.18563e-11
2.21085e-11
2.24425e-11
2.27995e-11
2.31246e-11
2.43698e-11
2.43663e-11
2.62954e-11
2.75104e-11
2.79776e-11
2.82512e-11
2.62208e-11
2.71321e-11
2.69313e-11
2.62101e-11
2.46647e-11
2.64677e-11
2.7006e-11
2.62901e-11
2.71161e-11
2.53557e-11
2.37499e-11
2.27498e-11
2.42668e-11
2.29861e-11
2.20961e-11
2.17053e-11
2.32809e-11
2.21512e-11
2.24336e-11
2.28813e-11
2.50058e-11
2.65299e-11
2.7681e-11
2.7697e-11
2.79101e-11
2.57128e-11
2.40057e-11
2.34657e-11
2.25402e-11
2.24851e-11
2.22844e-11
2.09024e-11
2.03304e-11
2.05151e-11
2.06555e-11
2.05063e-11
2.10267e-11
1.94031e-11
1.89466e-11
1.84759e-11
2.0389e-11
2.07425e-11
2.05134e-11
2.07372e-11
1.96021e-11
1.92344e-11
1.87068e-11
1.80549e-11
1.94422e-11
2.01261e-11
1.9261e-11
1.89981e-11
)
;

boundaryField
{
    sides
    {
        type            calculated;
        value           nonuniform List<scalar> 2(1.96179e-11 4.75092e-11);
    }
    empty
    {
        type            empty;
        value           nonuniform 0();
    }
}


// ************************************************************************* //
