/*--------------------------------*- C++ -*----------------------------------*\
| =========                 |                                                 |
| \\      /  F ield         | OpenFOAM: The Open Source CFD Toolbox           |
|  \\    /   O peration     | Version:  4.1                                   |
|   \\  /    A nd           | Web:      www.OpenFOAM.org                      |
|    \\/     M anipulation  |                                                 |
\*---------------------------------------------------------------------------*/
FoamFile
{
    version     2.0;
    format      ascii;
    class       volScalarField;
    location    "0.0058";
    object      T;
}
// * * * * * * * * * * * * * * * * * * * * * * * * * * * * * * * * * * * * * //

dimensions      [0 0 0 1 0 0 0];

internalField   nonuniform List<scalar> 
1000
(
400
400
400
400
400
400
400
400
400
400
400
400
400
400
400
400
400
400
400
400
400
400
400
400
400
400
400
400
400
400
400
400
400
400
400
400
400
400
400
400
400
400
400
400
400
400
400
400
400
400
400
400
400
400
400
400
400
400
400
400
400
400
400
400
400
400
400
400
400
400
400
400
400
400
400
400
400
400
400
400
400
400
400
400
400
400
400
400
400
400
400
400
400
400
400
400
400
400
400
400
400
400
400
400
400
400
400
400
400
400
400
400
400
400
400
400
400
400
400
400
400
400
400
400
400
400
400
400
400
400
400
400
400
400
400
400
400
400
400
400
400
400
400
400
400
400
400
400
400
400
400
400
400
400
400
400
400
400
400
400
400
400
400
400
400
400
400
400
400
400
400
400
400
400
400
400
400
400
400
400
400
400
400
400
400
400
400
400
400
400
400
400
400
400
400
400
400
400
400
400
400
400
400
400
400
400
400
400
400
400
400
400
400
400
400
400
400
400
400
400
400
400
400
400
400
400
400
400
400
400
400
400
400
400
400
400
400
400
400
400
400
399.999
399.999
399.998
399.997
399.996
399.993
399.99
399.984
399.976
399.965
399.948
399.924
399.891
399.845
399.784
399.703
399.598
399.464
399.298
399.096
398.859
398.588
398.288
397.961
397.612
397.241
396.851
396.444
396.023
395.588
395.142
394.687
394.222
393.75
393.271
392.787
392.298
391.804
391.306
390.805
390.301
389.794
389.285
388.773
388.26
387.745
387.228
386.709
386.19
385.669
385.147
384.624
384.101
383.576
383.051
382.525
381.999
381.472
380.945
380.417
379.889
379.361
378.832
378.303
377.774
377.244
376.715
376.185
375.655
375.126
374.596
374.066
373.536
373.006
372.477
371.947
371.418
370.888
370.359
369.83
369.301
368.772
368.244
367.716
367.188
366.66
366.133
365.605
365.079
364.552
364.026
363.5
362.975
362.45
361.926
361.402
360.878
360.355
359.832
359.31
358.789
358.267
357.747
357.227
356.708
356.189
355.671
355.154
354.637
354.121
353.606
353.092
352.578
352.065
351.553
351.042
350.532
350.022
349.514
349.007
348.5
347.995
347.491
346.988
346.486
345.985
345.486
344.988
344.492
343.997
343.503
343.011
342.521
342.032
341.545
341.06
340.577
340.096
339.618
339.141
338.667
338.196
337.727
337.261
336.798
336.338
335.881
335.429
334.978
334.536
334.089
333.663
333.213
332.817
332.348
332.001
331.499
331.213
330.684
330.43
329.935
329.635
329.262
328.855
328.615
328.17
327.929
327.611
327.255
327.077
326.723
326.497
326.311
326.005
325.868
325.682
325.457
325.372
325.216
325.068
325.016
324.91
324.821
324.794
324.739
324.689
324.679
324.662
324.64
324.636
324.638
324.636
324.635
324.635
324.638
324.64
324.642
324.646
324.653
324.658
324.662
324.669
324.672
324.674
324.678
324.68
324.68
324.682
324.684
324.684
324.685
324.687
324.687
324.688
324.689
324.69
324.691
324.692
324.693
324.694
324.695
324.696
324.697
324.698
324.699
324.7
324.701
324.702
324.703
324.704
324.705
324.706
324.708
324.708
324.71
324.711
324.712
324.713
324.714
324.716
324.716
324.718
324.719
324.72
324.721
324.723
324.724
324.725
324.726
324.728
324.729
324.731
324.732
324.734
324.735
324.736
324.738
324.739
324.741
324.743
324.744
324.745
324.747
324.749
324.75
324.752
324.754
324.756
324.757
324.759
324.762
324.763
324.764
324.766
324.769
324.771
324.772
324.774
324.777
324.779
324.781
324.782
324.785
324.788
324.79
324.792
324.794
324.797
324.8
324.802
324.803
324.807
324.81
324.813
324.815
324.817
324.821
324.825
324.828
324.83
324.832
324.837
324.842
324.846
324.848
324.85
324.854
324.86
324.865
324.869
324.871
324.874
324.88
324.887
324.893
324.897
324.899
324.902
324.908
324.917
324.926
324.933
324.936
324.938
324.942
324.951
324.963
324.975
324.983
324.987
324.99
324.995
325.007
325.023
325.039
325.05
325.056
325.059
325.065
325.079
325.103
325.126
325.142
325.152
325.157
325.163
325.178
325.211
325.25
325.285
325.31
325.325
325.332
325.339
325.352
325.394
325.485
325.581
325.663
325.725
325.761
325.775
325.775
325.749
325.648
325.534
325.466
325.45
325.655
327.602
336.639
356.239
377.201
397.55
416.265
432.707
446.533
457.645
466.224
472.65
477.341
480.643
482.868
484.332
485.312
485.963
486.342
486.527
486.651
486.768
486.829
486.814
486.789
486.813
486.855
486.843
486.788
486.783
486.827
486.838
486.797
486.766
486.789
486.825
486.81
486.758
486.758
486.807
486.812
486.761
486.74
486.778
486.806
486.775
486.731
486.743
486.791
486.789
486.734
486.72
486.764
486.787
486.752
486.712
486.73
486.775
486.767
486.712
486.706
486.756
486.77
486.723
486.694
486.728
486.766
486.744
486.691
486.697
486.753
486.758
486.698
486.679
486.728
486.758
486.724
486.678
486.689
486.744
486.746
486.688
486.672
486.719
486.746
486.71
486.668
486.686
486.737
486.732
486.672
486.663
486.717
486.737
486.691
486.656
486.686
486.732
486.715
486.656
486.657
486.72
486.73
486.668
486.643
486.69
486.728
486.696
486.643
486.653
486.716
486.72
486.655
486.636
486.688
486.721
486.682
486.634
486.652
486.71
486.707
486.639
486.628
486.688
486.713
486.661
486.621
486.65
486.703
486.691
486.622
486.617
486.679
486.697
486.639
486.605
486.641
486.689
486.666
486.602
486.603
486.667
486.678
486.611
486.584
486.625
486.665
486.629
486.571
486.577
486.637
486.64
486.566
486.547
486.59
486.622
486.57
486.522
486.534
486.587
486.57
486.492
486.48
486.523
486.543
486.469
486.433
486.442
486.481
486.445
486.37
486.361
486.383
486.396
486.305
486.266
486.259
486.287
486.236
486.14
486.121
486.131
486.129
485.964
485.913
485.905
485.924
485.78
485.636
485.596
485.595
485.567
485.248
485.107
485.08
485.17
484.752
484.312
484.184
484.011
483.577
481.639
477.062
465.569
423.115
406.688
401.664
400.398
400.094
400.022
400.005
400.001
400
400
400
400
400
400
400
400
400
400
400
400
400
400
400
400
400
400
400
400
400
400
400
400
400
400
400
400
400
400
400
400
400
400
400
400
400
400
400
400
400
400
400
400
400
400
400
400
400
400
400
400
400
400
400
400
400
400
400
400
400
400
400
400
400
400
400
400
400
400
400
400
400
400
400
400
400
400
400
400
400
400
400
400
400
400
400
400
400
400
400
400
400
400
400
400
400
400
400
400
400
400
400
400
400
400
400
400
400
400
400
400
400
400
400
400
400
400
400
400
400
400
400
400
400
400
400
400
400
400
400
400
400
400
400
400
400
400
400
400
400
400
400
400
400
400
400
400
400
400
400
400
400
400
400
400
400
400
400
400
400
400
400
400
400
400
400
400
400
400
400
400
400
400
400
400
400
400
400
)
;

boundaryField
{
    sides
    {
        type            zeroGradient;
    }
    empty
    {
        type            empty;
    }
}


// ************************************************************************* //
