/*--------------------------------*- C++ -*----------------------------------*\
| =========                 |                                                 |
| \\      /  F ield         | OpenFOAM: The Open Source CFD Toolbox           |
|  \\    /   O peration     | Version:  4.1                                   |
|   \\  /    A nd           | Web:      www.OpenFOAM.org                      |
|    \\/     M anipulation  |                                                 |
\*---------------------------------------------------------------------------*/
FoamFile
{
    version     2.0;
    format      ascii;
    class       volVectorField;
    location    "0.0058";
    object      U;
}
// * * * * * * * * * * * * * * * * * * * * * * * * * * * * * * * * * * * * * //

dimensions      [0 1 -1 0 0 0 0];

internalField   nonuniform List<vector> 
1000
(
(-1.36683e-11 0 0)
(-1.3994e-11 0 0)
(-1.55175e-11 0 0)
(-1.43283e-11 0 0)
(-1.57074e-11 0 0)
(-1.66504e-11 0 0)
(-1.87607e-11 0 0)
(-2.01101e-11 0 0)
(-2.06509e-11 0 0)
(-2.26453e-11 0 0)
(-2.31271e-11 0 0)
(-2.45144e-11 0 0)
(-2.43415e-11 0 0)
(-2.50995e-11 0 0)
(-2.2578e-11 0 0)
(-2.61476e-11 0 0)
(-2.54835e-11 0 0)
(-2.9652e-11 0 0)
(-2.46784e-11 0 0)
(-2.81709e-11 0 0)
(-2.18329e-11 0 0)
(-2.3966e-11 0 0)
(-2.10868e-11 0 0)
(-2.34707e-11 0 0)
(-2.05325e-11 0 0)
(-2.13604e-11 0 0)
(-1.82347e-11 0 0)
(-1.87408e-11 0 0)
(-1.82223e-11 0 0)
(-1.56821e-11 0 0)
(-1.81077e-11 0 0)
(-1.89204e-11 0 0)
(-1.67468e-11 0 0)
(-1.44799e-11 0 0)
(-1.63197e-11 0 0)
(-1.31877e-11 0 0)
(-1.9281e-11 0 0)
(-1.38355e-11 0 0)
(-1.50786e-11 0 0)
(-9.95007e-12 0 0)
(-1.13498e-11 0 0)
(-8.10452e-12 0 0)
(-1.06993e-11 0 0)
(-8.93102e-12 0 0)
(-1.3213e-11 0 0)
(-7.10387e-12 0 0)
(-9.83388e-12 0 0)
(-1.00386e-11 0 0)
(-1.00645e-11 0 0)
(-7.2339e-12 0 0)
(-1.12884e-11 0 0)
(-8.2282e-12 0 0)
(-8.36401e-12 0 0)
(-8.59967e-12 0 0)
(-8.14602e-12 0 0)
(-1.01817e-11 0 0)
(-1.14219e-11 0 0)
(-1.06075e-11 0 0)
(-8.6598e-12 0 0)
(-1.02955e-11 0 0)
(-7.96301e-12 0 0)
(-1.23439e-11 0 0)
(-1.26012e-11 0 0)
(-1.48239e-11 0 0)
(-1.18792e-11 0 0)
(-1.6001e-11 0 0)
(-1.11331e-11 0 0)
(-1.35072e-11 0 0)
(-9.44799e-12 0 0)
(-1.13379e-11 0 0)
(-6.13019e-12 0 0)
(-8.75109e-12 0 0)
(-4.60161e-12 0 0)
(-7.51478e-12 0 0)
(-9.30508e-13 0 0)
(-3.87207e-12 0 0)
(2.14963e-12 0 0)
(-1.57679e-12 0 0)
(6.56264e-13 0 0)
(1.39017e-12 0 0)
(-1.81469e-13 0 0)
(-2.51814e-12 0 0)
(-1.53579e-12 0 0)
(-1.1634e-12 0 0)
(-2.29204e-12 0 0)
(-1.1034e-12 0 0)
(-2.19003e-12 0 0)
(2.30733e-12 0 0)
(-5.12275e-13 0 0)
(1.23135e-12 0 0)
(-4.32336e-12 0 0)
(2.28142e-12 0 0)
(1.74479e-13 0 0)
(7.17523e-12 0 0)
(3.46294e-12 0 0)
(7.98489e-12 0 0)
(7.58237e-12 0 0)
(1.03719e-11 0 0)
(6.76007e-12 0 0)
(7.58928e-12 0 0)
(5.34279e-12 0 0)
(6.96158e-12 0 0)
(8.41073e-12 0 0)
(4.79565e-12 0 0)
(6.48913e-12 0 0)
(3.98079e-12 0 0)
(4.96101e-12 0 0)
(7.18784e-12 0 0)
(6.09267e-12 0 0)
(7.89597e-12 0 0)
(7.24542e-12 0 0)
(7.99434e-12 0 0)
(9.52254e-12 0 0)
(9.62888e-12 0 0)
(1.12766e-11 0 0)
(1.04146e-11 0 0)
(9.30656e-12 0 0)
(9.35853e-12 0 0)
(1.2173e-11 0 0)
(1.18171e-11 0 0)
(1.34828e-11 0 0)
(1.34976e-11 0 0)
(1.36806e-11 0 0)
(1.42518e-11 0 0)
(1.46873e-11 0 0)
(1.64996e-11 0 0)
(1.63665e-11 0 0)
(1.48815e-11 0 0)
(1.25957e-11 0 0)
(1.50364e-11 0 0)
(1.40814e-11 0 0)
(1.31639e-11 0 0)
(1.24651e-11 0 0)
(1.33782e-11 0 0)
(1.23626e-11 0 0)
(1.23341e-11 0 0)
(1.24277e-11 0 0)
(1.19169e-11 0 0)
(1.23099e-11 0 0)
(1.29813e-11 0 0)
(1.35972e-11 0 0)
(1.41405e-11 0 0)
(1.48183e-11 0 0)
(1.51901e-11 0 0)
(1.31122e-11 0 0)
(1.4944e-11 0 0)
(1.60598e-11 0 0)
(1.47867e-11 0 0)
(1.82499e-11 0 0)
(1.82696e-11 0 0)
(2.04324e-11 0 0)
(1.83883e-11 0 0)
(1.91628e-11 0 0)
(1.63422e-11 0 0)
(2.13137e-11 0 0)
(2.10366e-11 0 0)
(1.9589e-11 0 0)
(1.96247e-11 0 0)
(1.86877e-11 0 0)
(2.18196e-11 0 0)
(2.09732e-11 0 0)
(1.99555e-11 0 0)
(1.92098e-11 0 0)
(1.97717e-11 0 0)
(1.95499e-11 0 0)
(1.94237e-11 0 0)
(2.02922e-11 0 0)
(2.12288e-11 0 0)
(2.24245e-11 0 0)
(2.28903e-11 0 0)
(2.54235e-11 0 0)
(2.62357e-11 0 0)
(2.54141e-11 0 0)
(2.81423e-11 0 0)
(2.73725e-11 0 0)
(2.82826e-11 0 0)
(2.59269e-11 0 0)
(2.74196e-11 0 0)
(2.48281e-11 0 0)
(2.59148e-11 0 0)
(2.17919e-11 0 0)
(2.18287e-11 0 0)
(1.92724e-11 0 0)
(1.87767e-11 0 0)
(1.82697e-11 0 0)
(1.89109e-11 0 0)
(1.9987e-11 0 0)
(1.97322e-11 0 0)
(1.74324e-11 0 0)
(1.80121e-11 0 0)
(1.86821e-11 0 0)
(1.43695e-11 0 0)
(1.58394e-11 0 0)
(1.02502e-11 0 0)
(1.4299e-11 0 0)
(1.37675e-11 0 0)
(1.4753e-11 0 0)
(1.16691e-11 0 0)
(1.62158e-11 0 0)
(1.3646e-11 0 0)
(1.67327e-11 0 0)
(1.17537e-11 0 0)
(1.58507e-11 0 0)
(1.55357e-11 0 0)
(1.60766e-11 0 0)
(1.54038e-11 0 0)
(1.49875e-11 0 0)
(1.18074e-11 0 0)
(1.27433e-11 0 0)
(1.43274e-11 0 0)
(1.78359e-11 0 0)
(2.23366e-11 0 0)
(3.34481e-11 0 0)
(6.30898e-11 0 0)
(1.17927e-10 0 0)
(2.37933e-10 0 0)
(4.66089e-10 0 0)
(9.32919e-10 0 0)
(1.84221e-09 0 0)
(3.6342e-09 0 0)
(7.10075e-09 0 0)
(1.37955e-08 0 0)
(2.6593e-08 0 0)
(5.09135e-08 0 0)
(9.67576e-08 0 0)
(1.82556e-07 0 0)
(3.41873e-07 0 0)
(6.35447e-07 0 0)
(1.17215e-06 0 0)
(2.14553e-06 0 0)
(3.89652e-06 0 0)
(7.02039e-06 0 0)
(1.25467e-05 0 0)
(2.22394e-05 0 0)
(3.90911e-05 0 0)
(6.81288e-05 0 0)
(0.00011771 0 0)
(0.00020158 0 0)
(0.000342108 0 0)
(0.000575275 0 0)
(0.000958296 0 0)
(0.00158104 0 0)
(0.00258292 0 0)
(0.00417731 0 0)
(0.00668638 0 0)
(0.0105895 0 0)
(0.0165889 0 0)
(0.0256974 0 0)
(0.0393492 0 0)
(0.0595393 0 0)
(0.0889862 0 0)
(0.131314 0 0)
(0.191241 0 0)
(0.274741 0 0)
(0.389161 0 0)
(0.543216 0 0)
(0.746828 0 0)
(1.01072 0 0)
(1.34568 0 0)
(1.76141 0 0)
(2.26464 0 0)
(2.85657 0 0)
(3.5317 0 0)
(4.28113 0 0)
(5.09659 0 0)
(5.97143 0 0)
(6.89988 0 0)
(7.87651 0 0)
(8.89611 0 0)
(9.95379 0 0)
(11.045 0 0)
(12.1657 0 0)
(13.3122 0 0)
(14.4813 0 0)
(15.6703 0 0)
(16.8767 0 0)
(18.0986 0 0)
(19.3341 0 0)
(20.5816 0 0)
(21.84 0 0)
(23.1081 0 0)
(24.3849 0 0)
(25.6696 0 0)
(26.9614 0 0)
(28.2597 0 0)
(29.564 0 0)
(30.8737 0 0)
(32.1885 0 0)
(33.5078 0 0)
(34.8315 0 0)
(36.1591 0 0)
(37.4903 0 0)
(38.825 0 0)
(40.1629 0 0)
(41.5038 0 0)
(42.8475 0 0)
(44.1938 0 0)
(45.5426 0 0)
(46.8936 0 0)
(48.2469 0 0)
(49.6022 0 0)
(50.9594 0 0)
(52.3184 0 0)
(53.6792 0 0)
(55.0416 0 0)
(56.4055 0 0)
(57.7708 0 0)
(59.1375 0 0)
(60.5055 0 0)
(61.8747 0 0)
(63.245 0 0)
(64.6164 0 0)
(65.9888 0 0)
(67.3622 0 0)
(68.7364 0 0)
(70.1114 0 0)
(71.4872 0 0)
(72.8638 0 0)
(74.241 0 0)
(75.6188 0 0)
(76.9971 0 0)
(78.376 0 0)
(79.7553 0 0)
(81.1351 0 0)
(82.5152 0 0)
(83.8956 0 0)
(85.2763 0 0)
(86.6573 0 0)
(88.0384 0 0)
(89.4197 0 0)
(90.801 0 0)
(92.1824 0 0)
(93.5639 0 0)
(94.9453 0 0)
(96.3266 0 0)
(97.7077 0 0)
(99.0888 0 0)
(100.47 0 0)
(101.85 0 0)
(103.23 0 0)
(104.61 0 0)
(105.99 0 0)
(107.369 0 0)
(108.747 0 0)
(110.125 0 0)
(111.502 0 0)
(112.879 0 0)
(114.255 0 0)
(115.63 0 0)
(117.004 0 0)
(118.378 0 0)
(119.75 0 0)
(121.121 0 0)
(122.492 0 0)
(123.861 0 0)
(125.229 0 0)
(126.595 0 0)
(127.96 0 0)
(129.324 0 0)
(130.686 0 0)
(132.046 0 0)
(133.405 0 0)
(134.761 0 0)
(136.116 0 0)
(137.468 0 0)
(138.819 0 0)
(140.167 0 0)
(141.512 0 0)
(142.855 0 0)
(144.195 0 0)
(145.532 0 0)
(146.866 0 0)
(148.197 0 0)
(149.524 0 0)
(150.847 0 0)
(152.167 0 0)
(153.482 0 0)
(154.793 0 0)
(156.099 0 0)
(157.4 0 0)
(158.696 0 0)
(159.986 0 0)
(161.271 0 0)
(162.549 0 0)
(163.82 0 0)
(165.084 0 0)
(166.34 0 0)
(167.588 0 0)
(168.827 0 0)
(170.057 0 0)
(171.277 0 0)
(172.486 0 0)
(173.684 0 0)
(174.869 0 0)
(176.042 0 0)
(177.2 0 0)
(178.344 0 0)
(179.471 0 0)
(180.581 0 0)
(181.672 0 0)
(182.743 0 0)
(183.793 0 0)
(184.82 0 0)
(185.823 0 0)
(186.799 0 0)
(187.748 0 0)
(188.667 0 0)
(189.554 0 0)
(190.408 0 0)
(191.225 0 0)
(192.005 0 0)
(192.746 0 0)
(193.444 0 0)
(194.1 0 0)
(194.711 0 0)
(195.275 0 0)
(195.793 0 0)
(196.263 0 0)
(196.685 0 0)
(197.059 0 0)
(197.388 0 0)
(197.671 0 0)
(197.911 0 0)
(198.112 0 0)
(198.275 0 0)
(198.404 0 0)
(198.505 0 0)
(198.579 0 0)
(198.631 0 0)
(198.666 0 0)
(198.687 0 0)
(198.697 0 0)
(198.699 0 0)
(198.7 0 0)
(198.7 0 0)
(198.699 0 0)
(198.696 0 0)
(198.689 0 0)
(198.677 0 0)
(198.663 0 0)
(198.648 0 0)
(198.634 0 0)
(198.622 0 0)
(198.614 0 0)
(198.607 0 0)
(198.602 0 0)
(198.598 0 0)
(198.595 0 0)
(198.593 0 0)
(198.592 0 0)
(198.591 0 0)
(198.59 0 0)
(198.589 0 0)
(198.589 0 0)
(198.588 0 0)
(198.588 0 0)
(198.587 0 0)
(198.586 0 0)
(198.585 0 0)
(198.585 0 0)
(198.584 0 0)
(198.583 0 0)
(198.583 0 0)
(198.582 0 0)
(198.582 0 0)
(198.581 0 0)
(198.58 0 0)
(198.58 0 0)
(198.579 0 0)
(198.579 0 0)
(198.578 0 0)
(198.578 0 0)
(198.577 0 0)
(198.577 0 0)
(198.576 0 0)
(198.575 0 0)
(198.575 0 0)
(198.574 0 0)
(198.574 0 0)
(198.573 0 0)
(198.573 0 0)
(198.572 0 0)
(198.572 0 0)
(198.571 0 0)
(198.571 0 0)
(198.57 0 0)
(198.569 0 0)
(198.569 0 0)
(198.568 0 0)
(198.568 0 0)
(198.568 0 0)
(198.567 0 0)
(198.567 0 0)
(198.566 0 0)
(198.566 0 0)
(198.565 0 0)
(198.565 0 0)
(198.564 0 0)
(198.564 0 0)
(198.563 0 0)
(198.563 0 0)
(198.562 0 0)
(198.562 0 0)
(198.561 0 0)
(198.561 0 0)
(198.56 0 0)
(198.56 0 0)
(198.559 0 0)
(198.559 0 0)
(198.558 0 0)
(198.558 0 0)
(198.557 0 0)
(198.557 0 0)
(198.557 0 0)
(198.556 0 0)
(198.556 0 0)
(198.555 0 0)
(198.555 0 0)
(198.555 0 0)
(198.555 0 0)
(198.554 0 0)
(198.554 0 0)
(198.554 0 0)
(198.554 0 0)
(198.553 0 0)
(198.553 0 0)
(198.553 0 0)
(198.553 0 0)
(198.552 0 0)
(198.552 0 0)
(198.552 0 0)
(198.552 0 0)
(198.552 0 0)
(198.551 0 0)
(198.551 0 0)
(198.551 0 0)
(198.551 0 0)
(198.551 0 0)
(198.551 0 0)
(198.551 0 0)
(198.55 0 0)
(198.55 0 0)
(198.55 0 0)
(198.55 0 0)
(198.55 0 0)
(198.549 0 0)
(198.549 0 0)
(198.549 0 0)
(198.549 0 0)
(198.549 0 0)
(198.548 0 0)
(198.548 0 0)
(198.548 0 0)
(198.548 0 0)
(198.547 0 0)
(198.547 0 0)
(198.547 0 0)
(198.547 0 0)
(198.547 0 0)
(198.546 0 0)
(198.546 0 0)
(198.546 0 0)
(198.546 0 0)
(198.545 0 0)
(198.545 0 0)
(198.545 0 0)
(198.545 0 0)
(198.545 0 0)
(198.544 0 0)
(198.544 0 0)
(198.544 0 0)
(198.544 0 0)
(198.543 0 0)
(198.543 0 0)
(198.543 0 0)
(198.543 0 0)
(198.542 0 0)
(198.542 0 0)
(198.542 0 0)
(198.542 0 0)
(198.542 0 0)
(198.541 0 0)
(198.541 0 0)
(198.541 0 0)
(198.541 0 0)
(198.541 0 0)
(198.541 0 0)
(198.54 0 0)
(198.54 0 0)
(198.54 0 0)
(198.54 0 0)
(198.54 0 0)
(198.54 0 0)
(198.539 0 0)
(198.54 0 0)
(198.54 0 0)
(198.54 0 0)
(198.54 0 0)
(198.539 0 0)
(198.539 0 0)
(198.539 0 0)
(198.538 0 0)
(198.538 0 0)
(198.538 0 0)
(198.536 0 0)
(198.537 0 0)
(198.541 0 0)
(198.55 0 0)
(198.57 0 0)
(198.628 0 0)
(198.766 0 0)
(198.835 0 0)
(198.739 0 0)
(198.618 0 0)
(198.53 0 0)
(198.479 0 0)
(198.47 0 0)
(198.495 0 0)
(198.515 0 0)
(198.512 0 0)
(198.506 0 0)
(198.527 0 0)
(198.548 0 0)
(198.538 0 0)
(198.517 0 0)
(198.523 0 0)
(198.547 0 0)
(198.55 0 0)
(198.525 0 0)
(198.514 0 0)
(198.54 0 0)
(198.559 0 0)
(198.537 0 0)
(198.51 0 0)
(198.526 0 0)
(198.556 0 0)
(198.547 0 0)
(198.514 0 0)
(198.509 0 0)
(198.538 0 0)
(198.552 0 0)
(198.527 0 0)
(198.504 0 0)
(198.521 0 0)
(198.549 0 0)
(198.539 0 0)
(198.508 0 0)
(198.509 0 0)
(198.541 0 0)
(198.548 0 0)
(198.517 0 0)
(198.5 0 0)
(198.528 0 0)
(198.552 0 0)
(198.532 0 0)
(198.501 0 0)
(198.512 0 0)
(198.546 0 0)
(198.546 0 0)
(198.512 0 0)
(198.499 0 0)
(198.529 0 0)
(198.551 0 0)
(198.527 0 0)
(198.499 0 0)
(198.513 0 0)
(198.545 0 0)
(198.54 0 0)
(198.506 0 0)
(198.501 0 0)
(198.534 0 0)
(198.548 0 0)
(198.518 0 0)
(198.495 0 0)
(198.518 0 0)
(198.55 0 0)
(198.534 0 0)
(198.497 0 0)
(198.502 0 0)
(198.54 0 0)
(198.545 0 0)
(198.508 0 0)
(198.491 0 0)
(198.523 0 0)
(198.552 0 0)
(198.528 0 0)
(198.492 0 0)
(198.501 0 0)
(198.539 0 0)
(198.542 0 0)
(198.507 0 0)
(198.491 0 0)
(198.521 0 0)
(198.546 0 0)
(198.522 0 0)
(198.489 0 0)
(198.503 0 0)
(198.539 0 0)
(198.536 0 0)
(198.498 0 0)
(198.489 0 0)
(198.522 0 0)
(198.543 0 0)
(198.514 0 0)
(198.484 0 0)
(198.504 0 0)
(198.54 0 0)
(198.527 0 0)
(198.487 0 0)
(198.488 0 0)
(198.527 0 0)
(198.538 0 0)
(198.5 0 0)
(198.475 0 0)
(198.506 0 0)
(198.539 0 0)
(198.517 0 0)
(198.476 0 0)
(198.484 0 0)
(198.525 0 0)
(198.53 0 0)
(198.489 0 0)
(198.469 0 0)
(198.501 0 0)
(198.53 0 0)
(198.504 0 0)
(198.465 0 0)
(198.478 0 0)
(198.517 0 0)
(198.514 0 0)
(198.471 0 0)
(198.457 0 0)
(198.494 0 0)
(198.516 0 0)
(198.482 0 0)
(198.444 0 0)
(198.463 0 0)
(198.501 0 0)
(198.49 0 0)
(198.444 0 0)
(198.434 0 0)
(198.471 0 0)
(198.487 0 0)
(198.447 0 0)
(198.412 0 0)
(198.433 0 0)
(198.467 0 0)
(198.446 0 0)
(198.397 0 0)
(198.392 0 0)
(198.427 0 0)
(198.432 0 0)
(198.386 0 0)
(198.351 0 0)
(198.373 0 0)
(198.398 0 0)
(198.366 0 0)
(198.315 0 0)
(198.31 0 0)
(198.339 0 0)
(198.331 0 0)
(198.275 0 0)
(198.24 0 0)
(198.257 0 0)
(198.268 0 0)
(198.221 0 0)
(198.164 0 0)
(198.158 0 0)
(198.175 0 0)
(198.144 0 0)
(198.074 0 0)
(198.037 0 0)
(198.043 0 0)
(198.031 0 0)
(197.962 0 0)
(197.894 0 0)
(197.874 0 0)
(197.867 0 0)
(197.81 0 0)
(197.722 0 0)
(197.666 0 0)
(197.643 0 0)
(197.597 0 0)
(197.497 0 0)
(197.401 0 0)
(197.344 0 0)
(197.293 0 0)
(197.187 0 0)
(197.045 0 0)
(196.94 0 0)
(196.87 0 0)
(196.761 0 0)
(196.573 0 0)
(196.396 0 0)
(196.28 0 0)
(196.164 0 0)
(195.933 0 0)
(195.646 0 0)
(195.432 0 0)
(195.264 0 0)
(194.996 0 0)
(194.577 0 0)
(194.186 0 0)
(193.915 0 0)
(193.608 0 0)
(192.979 0 0)
(192.183 0 0)
(191.549 0 0)
(190.768 0 0)
(188.859 0 0)
(184.123 0 0)
(172.399 0 0)
(133.344 0 0)
(62.9133 0 0)
(17.618 0 0)
(4.44596 0 0)
(1.06867 0 0)
(0.253794 0 0)
(0.0600968 0 0)
(0.0142194 0 0)
(0.00336328 0 0)
(0.000795412 0 0)
(0.000188103 0 0)
(4.44827e-05 0 0)
(1.05191e-05 0 0)
(2.48751e-06 0 0)
(5.88227e-07 0 0)
(1.391e-07 0 0)
(3.28947e-08 0 0)
(7.78032e-09 0 0)
(1.84273e-09 0 0)
(4.38003e-10 0 0)
(1.06824e-10 0 0)
(2.848e-11 0 0)
(1.12194e-11 0 0)
(5.36587e-12 0 0)
(5.96115e-12 0 0)
(4.95867e-12 0 0)
(4.24177e-12 0 0)
(5.81858e-12 0 0)
(4.48717e-12 0 0)
(7.42304e-12 0 0)
(4.353e-12 0 0)
(7.72141e-12 0 0)
(5.88781e-12 0 0)
(9.34445e-12 0 0)
(7.38922e-12 0 0)
(1.07331e-11 0 0)
(1.0426e-11 0 0)
(1.18665e-11 0 0)
(8.96326e-12 0 0)
(1.09653e-11 0 0)
(1.05418e-11 0 0)
(7.78067e-12 0 0)
(1.0411e-11 0 0)
(9.74685e-12 0 0)
(7.68996e-12 0 0)
(9.21463e-12 0 0)
(7.75591e-12 0 0)
(7.23973e-12 0 0)
(6.93575e-12 0 0)
(8.74033e-12 0 0)
(7.07684e-12 0 0)
(5.64108e-12 0 0)
(5.62535e-12 0 0)
(4.90624e-12 0 0)
(4.27948e-12 0 0)
(3.46215e-12 0 0)
(6.67293e-12 0 0)
(7.10342e-12 0 0)
(8.65312e-12 0 0)
(6.5956e-12 0 0)
(7.66362e-12 0 0)
(6.07264e-12 0 0)
(6.88648e-12 0 0)
(5.59696e-12 0 0)
(7.38006e-12 0 0)
(1.07878e-11 0 0)
(1.01881e-11 0 0)
(1.44874e-11 0 0)
(1.48671e-11 0 0)
(1.63786e-11 0 0)
(1.76573e-11 0 0)
(1.91037e-11 0 0)
(2.1223e-11 0 0)
(2.15752e-11 0 0)
(2.49288e-11 0 0)
(2.43746e-11 0 0)
(2.6171e-11 0 0)
(2.63028e-11 0 0)
(2.60106e-11 0 0)
(2.51966e-11 0 0)
(2.18319e-11 0 0)
(2.12173e-11 0 0)
(1.94631e-11 0 0)
(2.00452e-11 0 0)
(1.88359e-11 0 0)
(2.03934e-11 0 0)
(1.78464e-11 0 0)
(1.80278e-11 0 0)
(1.84695e-11 0 0)
(1.61847e-11 0 0)
(1.51329e-11 0 0)
(1.82579e-11 0 0)
(1.94736e-11 0 0)
(2.18932e-11 0 0)
(2.16269e-11 0 0)
(2.48635e-11 0 0)
(2.36944e-11 0 0)
(2.38485e-11 0 0)
(2.22764e-11 0 0)
(2.31027e-11 0 0)
(2.16666e-11 0 0)
(2.1906e-11 0 0)
(2.21505e-11 0 0)
(2.01388e-11 0 0)
(2.048e-11 0 0)
(1.96798e-11 0 0)
(2.04016e-11 0 0)
(2.01204e-11 0 0)
(2.16638e-11 0 0)
(2.37615e-11 0 0)
(2.51633e-11 0 0)
(2.43441e-11 0 0)
(2.7556e-11 0 0)
(2.70777e-11 0 0)
(2.8215e-11 0 0)
(2.49813e-11 0 0)
(2.73469e-11 0 0)
(2.35399e-11 0 0)
(2.55026e-11 0 0)
(2.40011e-11 0 0)
(2.5323e-11 0 0)
(2.68864e-11 0 0)
(2.78615e-11 0 0)
(2.58204e-11 0 0)
(2.49965e-11 0 0)
(2.46026e-11 0 0)
(2.60336e-11 0 0)
(2.64848e-11 0 0)
(2.55722e-11 0 0)
(2.79876e-11 0 0)
(2.78849e-11 0 0)
(2.89402e-11 0 0)
(3.16732e-11 0 0)
(3.07587e-11 0 0)
(3.39284e-11 0 0)
(3.02026e-11 0 0)
(3.10147e-11 0 0)
(3.05306e-11 0 0)
(3.16503e-11 0 0)
(2.87792e-11 0 0)
(2.92494e-11 0 0)
(3.07319e-11 0 0)
(3.06041e-11 0 0)
(3.0918e-11 0 0)
(3.02767e-11 0 0)
(2.79378e-11 0 0)
(2.64728e-11 0 0)
(2.73932e-11 0 0)
(2.72179e-11 0 0)
(2.61085e-11 0 0)
(2.42023e-11 0 0)
(2.68737e-11 0 0)
(2.57782e-11 0 0)
(2.53163e-11 0 0)
(2.59333e-11 0 0)
(2.7719e-11 0 0)
(2.92581e-11 0 0)
(3.2309e-11 0 0)
(3.1266e-11 0 0)
(3.29075e-11 0 0)
(3.01447e-11 0 0)
(2.91504e-11 0 0)
(2.63713e-11 0 0)
(2.73834e-11 0 0)
(2.5193e-11 0 0)
(2.60061e-11 0 0)
(2.5161e-11 0 0)
(2.36001e-11 0 0)
(2.34633e-11 0 0)
(2.35862e-11 0 0)
(2.37506e-11 0 0)
(2.33791e-11 0 0)
(2.40719e-11 0 0)
(2.18809e-11 0 0)
(2.15289e-11 0 0)
(2.16266e-11 0 0)
(2.45591e-11 0 0)
(2.33097e-11 0 0)
(2.43939e-11 0 0)
(2.26775e-11 0 0)
(2.30331e-11 0 0)
(2.04009e-11 0 0)
(2.22051e-11 0 0)
(1.97886e-11 0 0)
(2.51823e-11 0 0)
(2.13102e-11 0 0)
(2.22851e-11 0 0)
(2.25744e-11 0 0)
)
;

boundaryField
{
    sides
    {
        type            zeroGradient;
    }
    empty
    {
        type            empty;
    }
}


// ************************************************************************* //
