/*--------------------------------*- C++ -*----------------------------------*\
| =========                 |                                                 |
| \\      /  F ield         | OpenFOAM: The Open Source CFD Toolbox           |
|  \\    /   O peration     | Version:  4.1                                   |
|   \\  /    A nd           | Web:      www.OpenFOAM.org                      |
|    \\/     M anipulation  |                                                 |
\*---------------------------------------------------------------------------*/
FoamFile
{
    version     2.0;
    format      ascii;
    class       volScalarField;
    location    "0.003";
    object      mag(U);
}
// * * * * * * * * * * * * * * * * * * * * * * * * * * * * * * * * * * * * * //

dimensions      [0 1 -1 0 0 0 0];

internalField   nonuniform List<scalar> 
1000
(
1.38628e-11
1.37547e-11
1.48431e-11
1.30697e-11
1.2085e-11
1.29896e-11
1.32399e-11
1.50671e-11
1.28286e-11
1.44254e-11
1.26014e-11
1.48549e-11
1.45551e-11
1.582e-11
1.25392e-11
1.39923e-11
1.3219e-11
1.49824e-11
9.81408e-12
1.36523e-11
1.24015e-11
1.57165e-11
1.70737e-11
1.8322e-11
1.43745e-11
1.77915e-11
1.50288e-11
1.68585e-11
1.57973e-11
1.58278e-11
1.71094e-11
1.70423e-11
1.74519e-11
1.43402e-11
1.74467e-11
1.29795e-11
1.32979e-11
1.19339e-11
1.62457e-11
1.00515e-11
1.31181e-11
1.07054e-11
1.26426e-11
7.60886e-12
1.07284e-11
5.61375e-12
8.49003e-12
9.21453e-12
8.91751e-12
5.56807e-12
4.81896e-12
1.83368e-12
1.48105e-12
9.36564e-13
7.81171e-14
3.12792e-12
2.61735e-12
1.91685e-12
4.27453e-14
3.00419e-12
6.71931e-13
4.4809e-13
2.46728e-12
1.17833e-12
3.20513e-12
3.52913e-12
2.47106e-12
1.9864e-12
4.8e-12
2.24157e-13
4.13989e-12
1.43498e-13
2.58079e-12
4.17231e-13
6.04035e-12
4.16666e-12
8.6909e-12
5.95738e-12
5.53314e-12
4.97893e-12
3.15705e-12
2.67949e-12
4.90264e-12
4.17718e-12
1.99948e-12
5.29313e-12
3.7323e-12
3.84068e-12
3.49362e-12
3.77867e-12
1.69774e-12
6.1779e-12
4.45318e-12
9.71019e-12
8.47964e-12
1.26135e-11
1.02693e-11
1.18859e-11
8.03084e-12
1.13706e-11
1.14918e-11
8.99379e-12
9.7363e-12
6.44718e-12
6.0859e-12
4.25818e-12
4.45137e-12
1.82823e-12
7.49184e-13
2.71722e-12
4.29177e-12
3.5245e-12
1.71089e-12
4.52709e-12
5.00182e-12
5.1836e-12
6.72615e-12
5.07044e-12
5.31921e-12
8.27525e-12
7.35344e-12
6.28465e-12
4.44354e-12
5.2386e-12
4.79148e-12
8.01496e-12
8.36015e-12
8.88395e-12
5.61487e-12
5.6741e-12
2.15008e-12
3.11091e-12
2.7935e-12
1.60599e-12
1.00452e-12
2.26829e-12
1.14394e-12
3.36287e-13
4.72709e-14
5.25601e-14
2.14915e-12
3.57981e-12
2.53362e-12
2.5708e-12
2.73232e-12
4.2266e-12
3.52652e-12
4.59465e-12
7.69676e-12
6.73642e-12
6.8447e-12
3.36772e-12
5.76439e-12
2.53471e-12
5.28651e-12
4.98072e-12
7.67757e-12
4.05444e-12
4.36054e-12
2.68782e-12
3.14063e-12
2.30963e-12
7.7358e-13
4.10457e-12
2.03196e-12
1.26843e-12
3.96622e-12
4.63047e-12
6.51767e-12
7.96923e-12
8.51032e-12
5.86097e-12
4.89062e-12
5.43734e-12
7.36773e-12
8.69484e-12
5.8305e-12
6.99096e-12
3.28927e-12
4.23808e-12
1.45245e-12
4.44701e-12
6.73757e-12
8.87519e-12
7.24156e-12
8.02093e-12
4.43659e-12
4.76234e-12
4.00741e-12
4.69536e-12
3.80039e-12
6.42715e-13
2.61885e-12
3.46188e-13
2.27645e-12
2.16832e-12
3.96148e-12
2.41002e-12
7.68089e-12
5.62497e-12
1.04559e-11
6.87795e-12
9.25015e-12
6.21165e-12
8.00478e-12
9.53303e-12
8.82597e-12
8.30772e-12
8.83291e-12
9.64953e-12
6.33959e-12
5.76475e-12
6.45741e-12
6.57404e-12
3.36612e-12
5.17715e-12
1.24989e-12
5.49351e-12
3.817e-12
6.20552e-12
4.2866e-12
9.53561e-12
5.30006e-12
1.0314e-11
3.75156e-12
8.24189e-12
2.38142e-13
4.93822e-12
1.08702e-12
5.80065e-12
3.608e-12
3.93724e-12
4.56511e-12
5.66456e-13
6.48518e-12
2.86905e-12
7.31858e-12
6.21851e-13
5.03493e-12
4.00794e-13
5.28171e-12
1.81838e-14
5.00421e-12
4.16654e-13
5.18583e-13
1.5798e-12
3.58366e-12
1.81967e-12
7.3984e-13
3.15026e-12
2.00518e-12
2.19036e-13
4.47378e-12
3.51221e-12
2.49856e-12
4.71556e-12
5.09906e-12
4.46884e-12
4.43308e-12
3.53495e-12
7.58363e-12
3.38184e-12
5.2962e-12
2.36278e-13
1.62558e-12
1.8064e-12
2.14842e-12
3.20726e-16
1.0265e-12
2.54623e-12
1.16056e-13
1.3905e-13
2.02495e-12
5.21321e-13
1.7895e-12
1.33042e-12
4.21011e-13
6.47204e-12
2.04855e-12
3.56928e-12
2.53181e-12
5.9918e-12
4.27061e-12
6.49883e-12
4.94169e-12
7.67435e-12
4.21412e-12
5.767e-12
4.62045e-12
4.01394e-12
2.27425e-12
3.77985e-12
3.55508e-12
2.38487e-12
4.74956e-12
6.21462e-12
5.14683e-12
6.44086e-12
5.92464e-12
5.05134e-12
6.94308e-12
6.64187e-12
8.60931e-12
5.22942e-12
7.58825e-12
6.28413e-12
7.70769e-12
7.84404e-12
7.04302e-12
7.66587e-12
8.6403e-12
7.98358e-12
6.61261e-12
7.8361e-12
4.70979e-12
8.43997e-12
6.67093e-12
7.68773e-12
7.05851e-12
4.11683e-12
4.69276e-12
1.66829e-12
2.28797e-12
4.034e-13
5.92514e-13
2.30728e-12
2.73079e-13
9.05905e-13
1.3614e-12
1.75393e-12
7.27837e-13
8.36686e-14
8.34532e-13
2.46722e-12
8.52707e-12
2.53256e-11
6.5606e-11
1.59923e-10
3.89235e-10
9.22588e-10
2.15984e-09
5.00008e-09
1.14488e-08
2.59326e-08
5.81099e-08
1.28809e-07
2.8241e-07
6.12337e-07
1.31278e-06
2.78228e-06
5.82796e-06
1.20626e-05
2.46638e-05
4.98042e-05
9.92966e-05
0.000195405
0.000379428
0.000726727
0.00137246
0.00255475
0.00468519
0.00846133
0.0150406
0.0263008
0.0452159
0.0763743
0.126656
0.206056
0.328587
0.513118
0.783862
1.17011
1.70461
2.41955
3.33819
4.46276
5.77541
7.25492
8.88471
10.6494
12.533
14.5194
16.5936
18.7419
20.9527
23.216
25.5236
27.8687
30.2458
32.6503
35.0784
37.527
39.9936
42.4759
44.972
47.4804
49.9997
52.5286
55.0661
57.6113
60.1633
62.7213
65.2847
67.8527
70.4248
73.0005
75.5791
78.1602
80.7434
83.3281
85.9138
88.5002
91.0868
93.6731
96.2587
98.8432
101.426
104.007
106.585
109.16
111.731
114.298
116.861
119.418
121.969
124.513
127.05
129.579
132.098
134.607
137.106
139.592
142.065
144.523
146.965
149.39
151.796
154.181
156.544
158.881
161.191
163.471
165.718
167.93
170.103
172.232
174.316
176.346
178.323
180.237
182.086
183.864
185.561
187.179
188.702
190.13
191.456
192.671
193.775
194.762
195.63
196.377
197.009
197.528
197.937
198.253
198.484
198.639
198.735
198.79
198.812
198.816
198.815
198.813
198.806
198.792
198.763
198.726
198.69
198.659
198.634
198.616
198.603
198.595
198.59
198.588
198.587
198.586
198.585
198.584
198.583
198.581
198.58
198.579
198.578
198.577
198.576
198.575
198.575
198.574
198.574
198.573
198.572
198.571
198.57
198.569
198.568
198.566
198.565
198.564
198.564
198.563
198.562
198.56
198.559
198.559
198.559
198.558
198.557
198.556
198.555
198.555
198.554
198.554
198.553
198.552
198.551
198.551
198.552
198.552
198.552
198.551
198.551
198.55
198.549
198.548
198.548
198.547
198.547
198.546
198.545
198.544
198.543
198.543
198.543
198.542
198.541
198.54
198.54
198.54
198.54
198.542
198.552
198.575
198.632
198.77
198.927
198.865
198.647
198.533
198.493
198.468
198.459
198.488
198.525
198.527
198.504
198.504
198.534
198.548
198.521
198.497
198.517
198.547
198.531
198.493
198.492
198.526
198.535
198.501
198.479
198.506
198.538
198.522
198.484
198.487
198.522
198.53
198.495
198.472
198.498
198.527
198.507
198.468
198.473
198.509
198.512
198.472
198.45
198.479
198.505
198.476
198.434
198.442
198.479
198.474
198.427
198.405
198.433
198.454
198.417
198.369
198.374
198.405
198.391
198.336
198.309
198.331
198.34
198.29
198.233
198.231
198.25
198.215
198.141
198.103
198.111
198.099
198.025
197.949
197.922
197.913
197.854
197.755
197.682
197.644
197.594
197.483
197.361
197.278
197.214
197.09
196.907
196.753
196.646
196.507
196.256
195.985
195.791
195.629
195.319
194.866
194.506
194.258
193.857
193.12
192.339
191.426
189.779
186.436
177.69
147.435
80.6958
24.4862
6.32092
1.52644
0.362045
0.0855117
0.0201789
0.00476049
0.00112287
0.000264824
6.24525e-05
1.47271e-05
3.47262e-06
8.18788e-07
1.93045e-07
4.55128e-08
1.07313e-08
2.5339e-09
6.0059e-10
1.46823e-10
3.73789e-11
1.32099e-11
6.72705e-12
4.20661e-12
2.9934e-12
6.19956e-13
1.6843e-12
4.8823e-12
1.45424e-12
5.2043e-12
4.63134e-12
8.30983e-12
5.52608e-12
7.98623e-12
7.00589e-12
7.24196e-12
5.36211e-12
4.28707e-12
4.01834e-12
3.43955e-12
2.66761e-12
6.31503e-12
6.12697e-12
4.90198e-12
5.01578e-12
1.45111e-12
6.51351e-13
9.86994e-13
3.81825e-12
2.6684e-12
1.8029e-12
5.63335e-13
2.71784e-13
5.00647e-12
3.71613e-12
4.20952e-12
5.78602e-12
4.50914e-12
2.38258e-12
4.09186e-12
1.54963e-12
7.38402e-13
1.23889e-12
1.31556e-12
3.40092e-12
5.70801e-14
3.0213e-12
1.22475e-12
5.21861e-12
2.0216e-12
2.43548e-12
2.16e-12
1.36684e-12
2.63211e-12
1.50946e-12
2.21828e-12
2.57617e-12
1.40546e-12
2.98951e-12
2.09202e-13
2.94853e-13
4.55041e-12
3.86195e-12
3.54725e-12
5.7454e-12
4.15362e-12
6.01433e-12
6.25131e-12
3.44389e-12
4.11564e-12
4.41816e-12
6.58271e-12
3.74578e-12
7.69259e-12
2.42442e-12
7.32229e-12
4.50901e-12
6.74412e-12
1.59166e-12
6.00346e-12
4.07862e-12
2.33753e-12
2.20743e-13
7.00651e-13
2.48245e-12
3.97167e-13
2.09781e-12
3.04019e-12
2.02415e-12
1.01837e-12
3.36034e-13
2.03183e-12
2.98003e-12
1.4408e-12
3.06305e-13
9.00191e-13
4.40221e-12
1.17223e-12
4.93163e-12
2.25572e-12
6.64337e-12
6.76656e-13
3.86453e-12
4.61249e-13
3.77186e-12
2.18153e-12
8.4989e-13
8.51691e-13
5.02953e-12
1.23914e-12
1.58858e-12
2.6072e-12
9.95982e-13
2.83014e-12
2.61078e-12
4.36272e-12
1.29432e-12
6.64128e-12
6.38856e-12
2.86736e-12
2.37621e-12
1.70651e-12
1.67669e-12
2.8453e-12
1.71075e-12
6.20578e-13
4.85662e-12
1.71874e-12
3.07731e-12
2.23855e-12
1.15878e-12
8.01468e-13
2.53192e-14
1.11677e-13
1.30366e-12
1.78942e-13
2.05892e-12
3.3741e-12
2.68671e-12
2.1786e-12
2.24754e-12
1.5982e-12
1.1149e-13
2.93503e-13
3.43117e-12
4.43303e-12
6.1697e-12
4.78058e-12
2.77707e-12
4.02756e-12
4.46821e-12
3.28404e-12
3.44858e-12
1.03991e-12
8.55525e-13
1.23061e-12
2.59961e-12
1.18699e-12
2.67097e-12
1.17828e-12
2.20034e-12
3.94617e-12
2.0818e-12
2.27061e-12
1.98328e-12
1.5667e-12
1.90698e-12
1.92166e-12
3.76003e-12
2.07513e-12
7.57145e-13
2.93209e-12
3.70386e-12
7.00755e-12
3.62226e-12
5.79504e-12
2.29865e-12
3.03041e-12
2.94323e-12
3.09787e-12
5.75284e-12
5.09226e-12
5.40564e-12
4.13498e-12
3.33803e-12
1.78687e-12
2.38655e-12
4.13227e-12
5.86992e-13
2.2369e-12
4.37238e-12
3.70081e-12
3.89756e-12
3.83568e-12
7.02124e-12
8.03738e-12
5.78416e-12
7.18065e-12
7.4861e-12
4.31479e-12
4.66571e-12
4.05406e-12
5.69367e-12
6.1432e-12
5.77482e-12
7.67616e-12
7.20808e-12
5.07561e-12
6.64643e-12
4.17379e-12
3.28154e-12
2.79952e-13
4.15195e-13
1.04903e-12
1.49269e-12
1.3127e-12
8.56834e-14
2.00944e-12
2.08079e-12
1.74734e-12
5.20785e-12
3.64526e-12
4.65236e-12
1.05794e-12
1.51045e-12
3.65874e-12
2.25575e-12
3.13121e-12
2.46873e-12
1.60332e-12
1.16495e-12
5.05385e-13
2.70403e-12
2.99291e-13
2.279e-12
1.63752e-12
1.40482e-13
1.16303e-12
1.58561e-12
5.73174e-12
5.98517e-12
5.3907e-12
5.91306e-12
8.96429e-12
8.92584e-12
9.69011e-12
1.20783e-11
1.29958e-11
1.30776e-11
1.24032e-11
1.12089e-11
1.12847e-11
1.26575e-11
1.06696e-11
9.68676e-12
7.87911e-12
8.15786e-12
6.33153e-12
5.07283e-12
1.79309e-12
2.34802e-12
4.19914e-12
8.01624e-13
3.21932e-12
5.36081e-12
3.88021e-12
8.46837e-12
5.07318e-12
5.22948e-12
3.71324e-12
9.34367e-12
5.09192e-12
7.29202e-12
5.18678e-12
7.31076e-12
9.3565e-12
6.58548e-12
6.94914e-12
7.97966e-12
8.05873e-12
8.13901e-12
9.99546e-12
8.3823e-12
8.9567e-12
1.09971e-11
1.36894e-11
1.19823e-11
1.28147e-11
1.03257e-11
1.29695e-11
1.11183e-11
1.17882e-11
1.1783e-11
1.47168e-11
1.34495e-11
1.64684e-11
1.71544e-11
1.7386e-11
1.52305e-11
1.44407e-11
1.32865e-11
1.50342e-11
1.71503e-11
1.47449e-11
1.52072e-11
1.41552e-11
1.63487e-11
1.64258e-11
1.67014e-11
1.65834e-11
1.93343e-11
1.66928e-11
2.02221e-11
1.76425e-11
2.07851e-11
1.77778e-11
2.12074e-11
2.04888e-11
)
;

boundaryField
{
    sides
    {
        type            calculated;
        value           nonuniform List<scalar> 2(2.04888e-11 1.38628e-11);
    }
    empty
    {
        type            empty;
    }
}


// ************************************************************************* //
