/*--------------------------------*- C++ -*----------------------------------*\
| =========                 |                                                 |
| \\      /  F ield         | OpenFOAM: The Open Source CFD Toolbox           |
|  \\    /   O peration     | Version:  4.1                                   |
|   \\  /    A nd           | Web:      www.OpenFOAM.org                      |
|    \\/     M anipulation  |                                                 |
\*---------------------------------------------------------------------------*/
FoamFile
{
    version     2.0;
    format      ascii;
    class       volScalarField;
    location    "0.003";
    object      p;
}
// * * * * * * * * * * * * * * * * * * * * * * * * * * * * * * * * * * * * * //

dimensions      [1 -1 -2 0 0 0 0];

internalField   nonuniform List<scalar> 
1000
(
100000
100000
100000
100000
100000
100000
100000
100000
100000
100000
100000
100000
100000
100000
100000
100000
100000
100000
100000
100000
100000
100000
100000
100000
100000
100000
100000
100000
100000
100000
100000
100000
100000
100000
100000
100000
100000
100000
100000
100000
100000
100000
100000
100000
100000
100000
100000
100000
100000
100000
100000
100000
100000
100000
100000
100000
100000
100000
100000
100000
100000
100000
100000
100000
100000
100000
100000
100000
100000
100000
100000
100000
100000
100000
100000
100000
100000
100000
100000
100000
100000
100000
100000
100000
100000
100000
100000
100000
100000
100000
100000
100000
100000
100000
100000
100000
100000
100000
100000
100000
100000
100000
100000
100000
100000
100000
100000
100000
100000
100000
100000
100000
100000
100000
100000
100000
100000
100000
100000
100000
100000
100000
100000
100000
100000
100000
100000
100000
100000
100000
100000
100000
100000
100000
100000
100000
100000
100000
100000
100000
100000
100000
100000
100000
100000
100000
100000
100000
100000
100000
100000
100000
100000
100000
100000
100000
100000
100000
100000
100000
100000
100000
100000
100000
100000
100000
100000
100000
100000
100000
100000
100000
100000
100000
100000
100000
100000
100000
100000
100000
100000
100000
100000
100000
100000
100000
100000
100000
100000
100000
100000
100000
100000
100000
100000
100000
100000
100000
100000
100000
100000
100000
100000
100000
100000
100000
100000
100000
100000
100000
100000
100000
100000
100000
100000
100000
100000
100000
100000
100000
100000
100000
100000
100000
100000
100000
100000
100000
100000
100000
100000
100000
100000
100000
100000
100000
100000
100000
100000
100000
100000
100000
100000
100000
100000
100000
100000
100000
100000
100000
100000
100000
100000
100000
100000
100000
100000
100000
100000
100000
100000
100000
100000
100000
100000
100000
100000
100000
100000
100000
100000
100000
100000
100000
100000
100000
100000
100000
100000
100000
100000
100000
100000
100000
100000
100000
100000
100000
100000
100000
100000
100000
100000
100000
100000
100000
100000
100000
100000
100000
100000
100000
100000
100000
100000
100000
100000
100000
100000
100000
100000
100000
100000
100000
100000
100000
100000
100000
100000
100000
100000
100000
100000
100000
100000
100000
100000
100000
100000
100000
100000
100000
100000
100000
100000
100000
100000
100000
100000
100000
100000
100000
100000
100000
100000
100000
100000
100000
100000
100000
100000
100000
100000
100000
100000
99999.9
99999.9
99999.8
99999.5
99999.1
99998.4
99997.1
99994.8
99991
99984.4
99973.7
99956.3
99928.9
99886.5
99822.6
99728.8
99594.8
99409.3
99161
98841.2
98449.6
97994.9
97485.4
96927.4
96326.6
95689.2
95021.2
94328.4
93615.6
92887.3
92146.9
91397.4
90641.4
89880.7
89116.9
88351.5
87585.5
86819.7
86055
85292
84531.2
83773.1
83018
82266.3
81518.2
80774.1
80034.2
79298.6
78567.6
77841.2
77119.7
76403.1
75691.6
74985.3
74284.3
73588.6
72898.4
72213.7
71534.6
70861.2
70193.5
69531.7
68875.8
68225.9
67582
66944.2
66312.6
65687.3
65068.3
64455.8
63849.9
63250.6
62658
62072.3
61493.7
60922.1
60357.9
59801.1
59252
58710.7
58177.4
57652.5
57136.1
56628.5
56130.1
55641.1
55162.1
54693.4
54235.4
53788.8
53353.7
52931.6
52521.8
52126.7
51745.1
51380.2
51030.2
50698
50384
50088.3
49813.3
49558.6
49325.5
49114.8
48927.2
48761.9
48619.3
48500
48401
48321.8
48262.5
48217.8
48187.5
48167.9
48157.7
48153.4
48152.6
48152.8
48153.3
48154.5
48157
48160.7
48167.5
48174.3
48180.3
48184.9
48188.2
48190.3
48191.5
48192.3
48192.9
48193.3
48193.6
48193.9
48194.1
48194.2
48194.3
48194.4
48194.5
48194.6
48194.7
48194.7
48195.1
48195.4
48195.5
48195.7
48195.7
48195.8
48195.9
48195.9
48195.9
48196
48195.9
48195.9
48196.2
48196.4
48196.5
48196.4
48196
48196.3
48196.8
48196.8
48196.9
48196.9
48197
48197
48197.1
48197.2
48197.3
48197.2
48196.8
48197
48197.7
48197.9
48198
48198.1
48198.1
48198.2
48198.2
48198.2
48198.3
48198.3
48198.3
48198.3
48198.2
48198.2
48198.2
48198.2
48198.2
48198.2
48198.2
48198.1
48198.1
48198
48198
48198.1
48198.9
48198.7
48197.7
48198.2
48205.5
48224.2
48180.2
48180.6
48200.5
48205.2
48197.7
48190.2
48199.4
48208.3
48203.9
48190.4
48191.2
48206.2
48209
48193.9
48187.2
48199.7
48210.3
48202.6
48187.4
48190.7
48208.1
48209.4
48191
48185.3
48200.7
48210.8
48201.8
48186.8
48190.3
48207.7
48208.8
48190.4
48184.9
48200.6
48210.2
48199.1
48184.6
48189.7
48207.7
48207.2
48187.2
48182.9
48200.2
48208.9
48194.4
48180.8
48188.3
48206
48203.3
48181.4
48178.3
48197.2
48205.1
48187.7
48174.3
48182.1
48199.1
48194.6
48172.1
48169.2
48186.9
48193.8
48172.6
48159.9
48168.4
48185.1
48175.5
48150.8
48148.5
48165.1
48169.9
48143.4
48131.4
48134.4
48147.7
48136.3
48110.4
48105.6
48110.2
48114.9
48084.2
48066.7
48063
48069.4
48052.7
48009.5
47998.9
47999.7
48003.4
47940.4
47906.3
47895.8
47904.5
47855.2
47755
47725.7
47723.5
47718.9
47545.2
47446.7
47365.1
47238.9
46889.7
45755.7
42630.4
31876.9
27035.5
25517
25124.3
25029.4
25006.9
25001.6
25000.4
25000.1
25000
25000
25000
25000
25000
25000
25000
25000
25000
25000
25000
25000
25000
25000
25000
25000
25000
25000
25000
25000
25000
25000
25000
25000
25000
25000
25000
25000
25000
25000
25000
25000
25000
25000
25000
25000
25000
25000
25000
25000
25000
25000
25000
25000
25000
25000
25000
25000
25000
25000
25000
25000
25000
25000
25000
25000
25000
25000
25000
25000
25000
25000
25000
25000
25000
25000
25000
25000
25000
25000
25000
25000
25000
25000
25000
25000
25000
25000
25000
25000
25000
25000
25000
25000
25000
25000
25000
25000
25000
25000
25000
25000
25000
25000
25000
25000
25000
25000
25000
25000
25000
25000
25000
25000
25000
25000
25000
25000
25000
25000
25000
25000
25000
25000
25000
25000
25000
25000
25000
25000
25000
25000
25000
25000
25000
25000
25000
25000
25000
25000
25000
25000
25000
25000
25000
25000
25000
25000
25000
25000
25000
25000
25000
25000
25000
25000
25000
25000
25000
25000
25000
25000
25000
25000
25000
25000
25000
25000
25000
25000
25000
25000
25000
25000
25000
25000
25000
25000
25000
25000
25000
25000
25000
25000
25000
25000
25000
25000
25000
25000
25000
25000
25000
25000
25000
25000
25000
25000
25000
25000
25000
25000
25000
25000
25000
25000
25000
25000
25000
25000
25000
25000
25000
25000
25000
25000
25000
25000
25000
25000
25000
25000
25000
25000
25000
25000
25000
25000
25000
25000
25000
25000
25000
25000
25000
25000
25000
25000
25000
25000
25000
25000
25000
25000
25000
25000
25000
25000
25000
25000
25000
25000
25000
25000
25000
25000
25000
25000
25000
25000
25000
25000
25000
25000
25000
25000
25000
25000
25000
25000
25000
25000
25000
25000
25000
25000
25000
25000
25000
25000
25000
25000
25000
25000
25000
25000
25000
25000
25000
25000
25000
25000
25000
25000
25000
25000
25000
25000
25000
25000
25000
25000
25000
25000
25000
25000
25000
25000
25000
25000
25000
25000
25000
25000
25000
25000
25000
25000
25000
25000
25000
25000
25000
25000
25000
25000
25000
25000
25000
25000
25000
25000
25000
25000
25000
25000
25000
25000
25000
)
;

boundaryField
{
    sides
    {
        type            zeroGradient;
    }
    empty
    {
        type            empty;
    }
}


// ************************************************************************* //
