/*--------------------------------*- C++ -*----------------------------------*\
| =========                 |                                                 |
| \\      /  F ield         | OpenFOAM: The Open Source CFD Toolbox           |
|  \\    /   O peration     | Version:  4.1                                   |
|   \\  /    A nd           | Web:      www.OpenFOAM.org                      |
|    \\/     M anipulation  |                                                 |
\*---------------------------------------------------------------------------*/
FoamFile
{
    version     2.0;
    format      ascii;
    class       surfaceScalarField;
    location    "0.003";
    object      phi;
}
// * * * * * * * * * * * * * * * * * * * * * * * * * * * * * * * * * * * * * //

dimensions      [1 0 -1 0 0 0 0];

internalField   nonuniform List<scalar> 
999
(
-4.74998e-11
-4.93188e-11
-4.97238e-11
-4.24052e-11
-4.49631e-11
-4.47358e-11
-4.9603e-11
-4.82032e-11
-4.75353e-11
-4.78622e-11
-4.72511e-11
-4.9809e-11
-5.38449e-11
-4.93756e-11
-4.6569e-11
-4.58584e-11
-5.08678e-11
-4.20002e-11
-4.11973e-11
-4.3606e-11
-5.08962e-11
-5.74474e-11
-6.2542e-11
-5.52802e-11
-5.49036e-11
-5.73479e-11
-5.65237e-11
-5.57847e-11
-5.70424e-11
-5.53086e-11
-6.04246e-11
-5.9444e-11
-5.57137e-11
-5.51168e-11
-5.2033e-11
-4.69811e-11
-4.23128e-11
-5.08393e-11
-4.44587e-11
-4.0643e-11
-4.16094e-11
-4.06786e-11
-3.53282e-11
-3.1477e-11
-2.93028e-11
-2.36682e-11
-3.09797e-11
-3.15552e-11
-2.58353e-11
-1.75859e-11
-1.07931e-11
-6.25988e-12
-4.93117e-12
-1.0445e-12
-6.16041e-12
-8.95994e-12
-8.95284e-12
-2.8848e-12
-5.67013e-12
-6.77858e-12
-6.96332e-13
6.4162e-12
1.66978e-12
4.1851e-12
1.06084e-11
1.14326e-11
7.23333e-12
1.24487e-11
8.42704e-12
7.91545e-12
6.46594e-12
4.68958e-12
4.85301e-12
1.20082e-11
1.63141e-11
2.42295e-11
2.47979e-11
1.82752e-11
1.92344e-11
1.50706e-11
8.91731e-12
1.4289e-11
1.63993e-11
1.10205e-11
1.19584e-11
1.51061e-11
1.43885e-11
1.19229e-11
1.36424e-11
8.41283e-12
1.49782e-11
1.76357e-11
2.47766e-11
3.24931e-11
3.74598e-11
3.91509e-11
3.79856e-11
3.40989e-11
3.45679e-11
3.96696e-11
3.56977e-11
3.36371e-11
2.67093e-11
2.21476e-11
1.68328e-11
1.68612e-11
9.73444e-12
4.81037e-12
6.57252e-12
1.10205e-11
1.4893e-11
8.57625e-12
1.07718e-11
1.65201e-11
1.89218e-11
1.9682e-11
2.07478e-11
1.80336e-11
2.41016e-11
2.84714e-11
2.19629e-11
1.9412e-11
1.74154e-11
1.62075e-11
2.3924e-11
2.75335e-11
3.08091e-11
2.4535e-11
1.92273e-11
1.41895e-11
8.46967e-12
1.08855e-11
8.34888e-12
3.9222e-12
6.11067e-12
5.68434e-12
1.46372e-12
-8.95284e-13
7.10543e-14
2.65032e-12
1.18163e-11
9.52127e-12
9.69891e-12
8.47677e-12
1.2669e-11
1.30171e-11
1.39622e-11
2.18634e-11
2.59561e-11
2.22613e-11
1.88578e-11
1.4623e-11
1.57172e-11
1.28679e-11
1.74154e-11
2.21192e-11
2.18989e-11
1.35998e-11
1.23208e-11
1.10134e-11
9.77707e-12
2.18847e-12
6.30962e-12
1.17595e-11
4.93117e-12
9.53548e-12
1.49569e-11
1.81757e-11
2.69296e-11
2.98144e-11
2.4265e-11
1.74722e-11
1.92628e-11
2.23466e-11
2.84714e-11
2.51319e-11
2.10676e-11
1.9817e-11
1.15676e-11
1.08287e-11
9.38627e-12
2.12026e-11
2.51106e-11
2.99707e-11
2.51106e-11
2.25029e-11
1.66125e-11
1.44098e-11
1.51985e-11
1.52482e-11
8.25651e-12
5.67013e-12
3.75877e-12
3.13349e-12
8.17835e-12
1.01608e-11
1.15463e-11
1.70814e-11
2.31068e-11
2.86846e-11
2.99565e-11
2.82157e-11
2.65317e-11
2.54445e-11
2.96438e-11
3.17115e-11
3.10862e-11
2.88125e-11
3.27347e-11
2.70575e-11
2.11244e-11
2.02007e-11
2.36042e-11
1.84173e-11
1.44027e-11
1.05445e-11
1.11129e-11
1.7387e-11
1.62572e-11
1.83178e-11
2.49116e-11
2.52314e-11
2.62119e-11
2.59917e-11
1.97034e-11
1.5234e-11
9.10916e-12
1.01679e-11
1.14042e-11
1.74367e-11
1.23919e-11
1.56177e-11
8.29914e-12
1.26619e-11
1.60156e-11
1.74012e-11
1.22071e-11
6.99174e-12
1.02531e-11
9.48575e-12
8.58336e-12
9.6847e-12
9.30811e-12
1.27187e-12
4.11404e-12
8.68283e-12
1.03384e-11
3.87246e-12
7.01306e-12
9.2939e-12
3.36087e-12
9.30811e-12
1.35429e-11
1.06937e-11
1.13545e-11
1.81473e-11
1.79128e-11
1.4353e-11
1.32019e-11
1.86589e-11
2.07905e-11
1.38485e-11
9.72733e-12
1.89004e-12
-9.9476e-14
-8.29914e-12
-3.2756e-12
2.25953e-12
-3.2756e-12
-4.0643e-12
-3.90799e-13
-4.23483e-12
-2.30216e-12
-2.51532e-12
-6.82121e-13
1.4424e-12
1.00542e-11
1.56319e-11
9.11626e-12
1.10987e-11
1.59588e-11
1.62572e-11
1.89004e-11
2.17497e-11
2.09681e-11
1.98597e-11
1.78701e-11
1.78417e-11
1.50351e-11
1.07931e-11
1.06368e-11
1.27258e-11
1.06866e-11
1.18163e-11
1.94547e-11
1.99094e-11
2.05418e-11
2.04352e-11
2.0286e-11
1.98668e-11
2.30074e-11
2.81162e-11
2.27374e-11
2.27729e-11
2.40732e-11
2.49187e-11
2.77112e-11
2.4464e-11
2.66454e-11
2.88054e-11
2.77254e-11
2.67875e-11
2.41371e-11
2.26876e-11
2.224e-11
2.58922e-11
2.43361e-11
2.67448e-11
1.88081e-11
1.53406e-11
1.03881e-11
6.58673e-12
5.35749e-12
-4.90274e-13
3.0056e-12
4.29168e-12
-9.23706e-13
-3.83693e-12
-4.85301e-12
-5.07328e-12
-1.11555e-12
-2.0961e-12
2.45848e-12
1.85025e-11
5.47971e-11
1.47999e-10
3.66768e-10
8.95675e-10
2.14227e-09
5.04125e-09
1.17237e-08
2.69682e-08
6.13614e-08
1.38125e-07
3.07585e-07
6.77525e-07
1.47604e-06
3.17988e-06
6.77288e-06
1.42592e-05
2.96672e-05
6.09839e-05
0.000123822
0.00024826
0.00049138
0.000959835
0.0018497
0.00351542
0.00658661
0.0121613
0.0221174
0.0396025
0.0697775
0.120911
0.205921
0.344448
0.565465
0.910309
1.43575
2.21641
3.34525
4.93061
7.08723
9.91771
13.475
17.7028
22.4956
27.7794
33.493
39.5726
45.9536
52.5746
59.3806
66.3234
73.3627
80.465
87.603
94.7545
101.901
109.029
116.126
123.182
130.189
137.141
144.032
150.857
157.614
164.297
170.906
177.437
183.888
190.259
196.547
202.751
208.871
214.906
220.854
226.716
232.491
238.178
243.778
249.29
254.713
260.049
265.296
270.455
275.525
280.507
285.401
290.207
294.925
299.554
304.096
308.549
312.914
317.192
321.381
325.483
329.497
333.422
337.26
341.009
344.67
348.242
351.725
355.118
358.422
361.635
364.757
367.787
370.725
373.566
376.32
378.963
381.534
383.966
386.352
388.572
390.739
392.785
394.673
396.563
398.184
399.827
401.301
402.576
403.893
404.942
405.882
406.825
407.495
408.092
408.674
409.034
409.311
409.6
409.75
409.811
409.888
409.932
409.929
409.905
409.896
409.891
409.88
409.856
409.819
409.796
409.767
409.738
409.719
409.704
409.685
409.674
409.669
409.664
409.657
409.653
409.65
409.644
409.635
409.628
409.621
409.613
409.602
409.593
409.589
409.591
409.583
409.578
409.572
409.561
409.552
409.544
409.534
409.524
409.514
409.497
409.49
409.489
409.48
409.467
409.44
409.428
409.437
409.424
409.409
409.399
409.389
409.373
409.354
409.339
409.33
409.319
409.285
409.253
409.25
409.238
409.23
409.219
409.194
409.156
409.118
409.091
409.075
409.062
409.039
408.983
408.916
408.861
408.827
408.809
408.788
408.744
408.604
408.44
408.311
408.237
408.214
408.22
408.351
408.602
408.79
408.852
408.365
404.122
386.729
358.474
335.328
316.874
302.66
292.087
285.008
280.581
277.607
275.406
274.22
273.889
273.762
273.44
273.064
273.071
273.465
273.509
273.073
272.985
273.377
273.546
273.301
273.003
273.117
273.512
273.541
273.088
272.998
273.397
273.566
273.305
273.013
273.13
273.524
273.53
273.064
272.986
273.433
273.582
273.245
272.98
273.156
273.541
273.499
273.021
272.961
273.455
273.586
273.152
272.929
273.147
273.526
273.433
272.949
272.91
273.403
273.531
273.042
272.849
273.073
273.446
273.292
272.806
272.783
273.289
273.384
272.768
272.635
272.871
273.239
272.979
272.524
272.504
272.875
273.024
272.376
272.273
272.331
272.651
272.434
271.882
271.877
272.042
272.297
271.324
271.149
271.222
271.645
271.066
270.036
270.011
270.354
270.763
268.519
268.162
268.33
269.195
267.617
265.033
264.429
263.945
263.789
258.94
230.124
142.315
45.1143
12.2574
3.00674
0.714793
0.168859
0.0398482
0.00940138
0.00221773
0.000523077
0.000123361
2.90912e-05
6.85991e-06
1.61752e-06
3.81379e-07
8.99162e-08
2.11992e-08
4.99985e-09
1.18174e-09
2.81926e-10
6.97113e-11
1.92735e-11
7.9261e-12
4.81748e-12
3.13705e-12
9.11271e-13
3.76588e-13
-1.25944e-12
-2.8173e-12
-2.78533e-12
-4.42135e-12
-5.64704e-12
-6.0556e-12
-5.90461e-12
-6.32738e-12
-6.52456e-12
-5.42855e-12
-3.97371e-12
-3.85114e-12
-3.06954e-12
-2.82441e-12
-3.8014e-12
-5.139e-12
-4.93827e-12
-4.55103e-12
-2.6148e-12
-4.28102e-13
8.56204e-13
1.8705e-12
3.12994e-12
1.71063e-12
4.28102e-13
-8.52651e-14
-1.82432e-12
-4.09806e-12
-3.41238e-12
-4.34852e-12
-4.23128e-12
-3.22586e-12
-2.8475e-12
-2.49045e-12
-4.13891e-13
-1.38556e-13
1.24345e-14
-9.30811e-13
-1.27187e-12
-1.36247e-12
-1.96465e-12
-2.88836e-12
-1.50813e-12
2.17426e-12
1.95044e-12
2.57572e-13
5.50671e-13
4.65405e-13
3.05533e-13
-2.06057e-13
-3.6593e-13
-8.45546e-13
-1.33404e-12
-2.71783e-13
-2.16538e-12
-3.50653e-12
-3.201e-12
-4.21529e-12
-4.35918e-12
-4.08207e-12
-5.54046e-12
-4.44622e-12
-2.97717e-12
-4.0572e-12
-4.84768e-12
-4.19043e-12
-5.25624e-12
-4.24194e-12
-4.57234e-12
-4.76774e-12
-5.0786e-12
-3.52607e-12
-3.15481e-12
-4.54747e-12
-2.80131e-12
-1.00897e-12
-2.77112e-13
9.96536e-13
1.03029e-12
1.22213e-12
2.47802e-12
2.01617e-12
1.19016e-12
2.70006e-13
8.82849e-13
-5.82645e-13
-1.6005e-12
-9.30811e-13
-4.83169e-13
-2.30926e-12
-2.60059e-12
-2.49401e-12
-3.41949e-12
-3.43015e-12
-3.01625e-12
-1.11378e-12
-2.1938e-12
-1.7053e-12
-2.76223e-12
-1.18483e-12
3.55271e-15
2.31992e-12
2.93809e-12
1.41043e-12
-5.50671e-13
-1.67333e-12
-1.54543e-12
-2.15472e-12
-3.3733e-12
-2.21867e-12
-3.66107e-12
-5.5973e-12
-3.86535e-12
-2.48868e-12
-1.62714e-12
-1.42819e-12
-2.02327e-12
-5.71987e-13
5.64881e-13
1.68754e-12
1.55254e-12
4.52971e-13
2.66809e-12
1.26832e-12
1.02318e-12
2.43361e-13
9.05942e-14
5.20473e-13
4.54747e-13
9.04166e-13
2.27374e-12
2.49933e-12
2.19913e-12
2.09788e-12
1.48681e-12
7.6561e-13
-1.01252e-13
-1.45484e-12
-3.45324e-12
-4.72333e-12
-5.01998e-12
-3.02158e-12
-2.93454e-12
-3.84937e-12
-3.19922e-12
-3.16724e-12
-1.85985e-12
-9.50351e-13
-9.13047e-13
-1.42464e-12
-1.91314e-12
7.56728e-13
1.55609e-12
1.62181e-12
2.63434e-12
2.41762e-12
2.15294e-12
8.88178e-14
-1.33227e-12
-1.69642e-12
-1.82609e-12
-2.1938e-12
-2.3217e-12
-7.19425e-13
1.56142e-12
3.19567e-12
4.55636e-12
4.46221e-12
4.19931e-12
3.3431e-12
2.50644e-12
2.79066e-12
2.36966e-12
3.892e-12
4.46931e-12
5.08216e-12
3.77121e-12
3.1104e-12
2.42117e-12
1.76392e-12
2.56684e-12
2.36255e-12
1.07647e-12
2.73026e-12
3.75167e-12
3.14593e-12
3.1477e-12
5.10347e-12
6.41975e-12
5.82467e-12
5.79625e-12
6.33804e-12
5.12657e-12
3.76765e-12
4.04476e-12
3.9666e-12
5.45164e-12
4.87788e-12
5.6577e-12
6.88694e-12
4.97202e-12
5.34328e-12
4.54214e-12
3.47811e-12
1.22569e-12
-3.90799e-13
-7.17648e-13
2.64677e-13
7.10543e-14
-4.44089e-13
-9.87654e-13
-1.80655e-12
-1.59339e-12
-2.96829e-12
-3.84581e-12
-3.73213e-12
-1.64313e-12
-1.36779e-13
8.06466e-13
2.40696e-12
2.67519e-12
2.23643e-12
1.61293e-12
2.94875e-13
-4.22773e-13
1.58096e-12
1.01252e-12
8.02913e-13
1.89004e-12
6.41265e-13
-3.76588e-13
1.61648e-13
3.26672e-12
5.22249e-12
4.72156e-12
4.98268e-12
6.70397e-12
7.52287e-12
8.00604e-12
9.66516e-12
1.10099e-11
1.11875e-11
1.07381e-11
1.06812e-11
9.71667e-12
1.03224e-11
1.00737e-11
8.8427e-12
7.68985e-12
7.18714e-12
6.1906e-12
4.7784e-12
3.32534e-12
1.55964e-12
3.1779e-12
1.91491e-12
1.92557e-12
3.57581e-12
4.06253e-12
5.38414e-12
6.10179e-12
4.28813e-12
3.85469e-12
5.92415e-12
6.04672e-12
5.75362e-12
5.32552e-12
5.28111e-12
7.05569e-12
7.17293e-12
5.93126e-12
6.03961e-12
7.15339e-12
7.25286e-12
8.08953e-12
7.76446e-12
7.43583e-12
8.66507e-12
1.06812e-11
1.12497e-11
1.11005e-11
9.69536e-12
1.03526e-11
1.03668e-11
1.0008e-11
1.01696e-11
1.19762e-11
1.18145e-11
1.31131e-11
1.45821e-11
1.51505e-11
1.45679e-11
1.25393e-11
1.21982e-11
1.19069e-11
1.4504e-11
1.36531e-11
1.27276e-11
1.29834e-11
1.31894e-11
1.42517e-11
1.41878e-11
1.46674e-11
1.58717e-11
1.52571e-11
1.59375e-11
1.6728e-11
1.66533e-11
1.64526e-11
1.71525e-11
1.83658e-11
)
;

boundaryField
{
    sides
    {
        type            calculated;
        value           nonuniform List<scalar> 2(1.78012e-11 4.82143e-11);
    }
    empty
    {
        type            empty;
        value           nonuniform 0();
    }
}


// ************************************************************************* //
