/*--------------------------------*- C++ -*----------------------------------*\
| =========                 |                                                 |
| \\      /  F ield         | OpenFOAM: The Open Source CFD Toolbox           |
|  \\    /   O peration     | Version:  4.1                                   |
|   \\  /    A nd           | Web:      www.OpenFOAM.org                      |
|    \\/     M anipulation  |                                                 |
\*---------------------------------------------------------------------------*/
FoamFile
{
    version     2.0;
    format      ascii;
    class       volScalarField;
    location    "0.003";
    object      T;
}
// * * * * * * * * * * * * * * * * * * * * * * * * * * * * * * * * * * * * * //

dimensions      [0 0 0 1 0 0 0];

internalField   nonuniform List<scalar> 
1000
(
400
400
400
400
400
400
400
400
400
400
400
400
400
400
400
400
400
400
400
400
400
400
400
400
400
400
400
400
400
400
400
400
400
400
400
400
400
400
400
400
400
400
400
400
400
400
400
400
400
400
400
400
400
400
400
400
400
400
400
400
400
400
400
400
400
400
400
400
400
400
400
400
400
400
400
400
400
400
400
400
400
400
400
400
400
400
400
400
400
400
400
400
400
400
400
400
400
400
400
400
400
400
400
400
400
400
400
400
400
400
400
400
400
400
400
400
400
400
400
400
400
400
400
400
400
400
400
400
400
400
400
400
400
400
400
400
400
400
400
400
400
400
400
400
400
400
400
400
400
400
400
400
400
400
400
400
400
400
400
400
400
400
400
400
400
400
400
400
400
400
400
400
400
400
400
400
400
400
400
400
400
400
400
400
400
400
400
400
400
400
400
400
400
400
400
400
400
400
400
400
400
400
400
400
400
400
400
400
400
400
400
400
400
400
400
400
400
400
400
400
400
400
400
400
400
400
400
400
400
400
400
400
400
400
400
400
400
400
400
400
400
400
400
400
400
400
400
400
400
400
400
400
400
400
400
400
400
400
400
400
400
400
400
400
400
400
400
400
400
400
400
400
400
400
400
400
400
400
400
400
400
400
400
400
400
400
400
400
400
400
400
400
400
400
400
400
400
400
400
400
400
400
400
400
400
400
400
400
400
400
400
400
400
400
400
400
400
400
400
400
400
400
400
400
400
400
400
400
400
400
400
400
400
400
400
400
400
400
400
400
400
400
400
400
400
400
400
400
400
400
400
400
400
400
400
400
400
400
399.999
399.999
399.998
399.997
399.994
399.99
399.982
399.97
399.95
399.919
399.87
399.797
399.689
399.535
399.322
399.037
398.668
398.215
397.688
397.095
396.444
395.739
394.988
394.197
393.373
392.52
391.644
390.748
389.837
388.911
387.975
387.029
386.075
385.115
384.148
383.178
382.203
381.224
380.243
379.26
378.274
377.287
376.299
375.31
374.32
373.329
372.339
371.348
370.358
369.368
368.379
367.391
366.403
365.417
364.432
363.448
362.466
361.486
360.508
359.532
358.558
357.587
356.618
355.653
354.69
353.731
352.775
351.823
350.876
349.932
348.994
348.06
347.132
346.209
345.293
344.384
343.481
342.586
341.7
340.822
339.954
339.096
338.251
337.413
336.599
335.775
335.018
334.179
333.528
332.631
332.129
331.189
330.756
329.954
329.377
328.902
328.156
327.832
327.289
326.77
326.543
326.078
325.749
325.603
325.289
325.091
325.027
324.879
324.767
324.755
324.731
324.688
324.686
324.697
324.702
324.701
324.703
324.713
324.728
324.742
324.752
324.772
324.784
324.788
324.796
324.805
324.807
324.809
324.815
324.821
324.823
324.826
324.831
324.836
324.839
324.842
324.848
324.853
324.855
324.86
324.868
324.873
324.875
324.881
324.889
324.892
324.898
324.904
324.909
324.915
324.923
324.93
324.935
324.944
324.953
324.958
324.964
324.974
324.987
324.995
325
325.009
325.024
325.038
325.047
325.053
325.062
325.079
325.1
325.118
325.127
325.134
325.146
325.173
325.206
325.232
325.248
325.255
325.266
325.295
325.348
325.398
325.432
325.449
325.46
325.481
325.548
325.682
325.804
325.884
325.919
325.921
325.87
325.685
325.513
325.438
325.528
326.961
335.052
357.607
384.299
409.333
431.055
448.579
461.817
471.269
477.626
481.639
484.025
485.415
486.212
486.605
486.741
486.797
486.86
486.897
486.872
486.809
486.802
486.847
486.849
486.788
486.761
486.799
486.83
486.806
486.753
486.755
486.807
486.813
486.755
486.732
486.772
486.803
486.773
486.722
486.729
486.785
486.787
486.724
486.704
486.75
486.778
486.738
486.69
486.703
486.759
486.757
486.687
486.671
486.724
486.752
486.703
486.655
486.669
486.722
486.715
486.641
486.627
486.678
486.705
486.645
486.601
486.619
486.671
486.65
486.567
486.556
486.603
486.626
486.549
486.508
486.511
486.553
486.528
486.438
486.423
486.438
486.459
486.369
486.313
486.301
486.311
486.275
486.141
486.105
486.097
486.133
485.964
485.831
485.786
485.836
485.729
485.361
485.289
485.313
485.315
484.757
484.512
484.247
483.752
482.705
479.803
471.764
431.243
409.302
402.369
400.569
400.135
400.032
400.008
400.002
400
400
400
400
400
400
400
400
400
400
400
400
400
400
400
400
400
400
400
400
400
400
400
400
400
400
400
400
400
400
400
400
400
400
400
400
400
400
400
400
400
400
400
400
400
400
400
400
400
400
400
400
400
400
400
400
400
400
400
400
400
400
400
400
400
400
400
400
400
400
400
400
400
400
400
400
400
400
400
400
400
400
400
400
400
400
400
400
400
400
400
400
400
400
400
400
400
400
400
400
400
400
400
400
400
400
400
400
400
400
400
400
400
400
400
400
400
400
400
400
400
400
400
400
400
400
400
400
400
400
400
400
400
400
400
400
400
400
400
400
400
400
400
400
400
400
400
400
400
400
400
400
400
400
400
400
400
400
400
400
400
400
400
400
400
400
400
400
400
400
400
400
400
400
400
400
400
400
400
400
400
400
400
400
400
400
400
400
400
400
400
400
400
400
400
400
400
400
400
400
400
400
400
400
400
400
400
400
400
400
400
400
400
400
400
400
400
400
400
400
400
400
400
400
400
400
400
400
400
400
400
400
400
400
400
400
400
400
400
400
400
400
400
400
400
400
400
400
400
400
400
400
400
400
400
400
400
400
400
400
400
400
400
400
400
400
400
400
400
400
400
400
400
400
400
400
400
400
400
400
400
400
400
400
400
400
400
400
400
400
400
400
400
400
400
400
400
400
400
400
400
400
400
400
400
400
400
400
400
400
400
400
400
400
400
400
400
400
400
400
400
400
400
400
400
400
400
400
400
400
)
;

boundaryField
{
    sides
    {
        type            zeroGradient;
    }
    empty
    {
        type            empty;
    }
}


// ************************************************************************* //
