/*--------------------------------*- C++ -*----------------------------------*\
| =========                 |                                                 |
| \\      /  F ield         | OpenFOAM: The Open Source CFD Toolbox           |
|  \\    /   O peration     | Version:  4.1                                   |
|   \\  /    A nd           | Web:      www.OpenFOAM.org                      |
|    \\/     M anipulation  |                                                 |
\*---------------------------------------------------------------------------*/
FoamFile
{
    version     2.0;
    format      ascii;
    class       volVectorField;
    location    "0.003";
    object      U;
}
// * * * * * * * * * * * * * * * * * * * * * * * * * * * * * * * * * * * * * //

dimensions      [0 1 -1 0 0 0 0];

internalField   nonuniform List<vector> 
1000
(
(-1.38628e-11 0 0)
(-1.37547e-11 0 0)
(-1.48431e-11 0 0)
(-1.30697e-11 0 0)
(-1.2085e-11 0 0)
(-1.29896e-11 0 0)
(-1.32399e-11 0 0)
(-1.50671e-11 0 0)
(-1.28286e-11 0 0)
(-1.44254e-11 0 0)
(-1.26014e-11 0 0)
(-1.48549e-11 0 0)
(-1.45551e-11 0 0)
(-1.582e-11 0 0)
(-1.25392e-11 0 0)
(-1.39923e-11 0 0)
(-1.3219e-11 0 0)
(-1.49824e-11 0 0)
(-9.81408e-12 0 0)
(-1.36523e-11 0 0)
(-1.24015e-11 0 0)
(-1.57165e-11 0 0)
(-1.70737e-11 0 0)
(-1.8322e-11 0 0)
(-1.43745e-11 0 0)
(-1.77915e-11 0 0)
(-1.50288e-11 0 0)
(-1.68585e-11 0 0)
(-1.57973e-11 0 0)
(-1.58278e-11 0 0)
(-1.71094e-11 0 0)
(-1.70423e-11 0 0)
(-1.74519e-11 0 0)
(-1.43402e-11 0 0)
(-1.74467e-11 0 0)
(-1.29795e-11 0 0)
(-1.32979e-11 0 0)
(-1.19339e-11 0 0)
(-1.62457e-11 0 0)
(-1.00515e-11 0 0)
(-1.31181e-11 0 0)
(-1.07054e-11 0 0)
(-1.26426e-11 0 0)
(-7.60886e-12 0 0)
(-1.07284e-11 0 0)
(-5.61375e-12 0 0)
(-8.49003e-12 0 0)
(-9.21453e-12 0 0)
(-8.91751e-12 0 0)
(-5.56807e-12 0 0)
(-4.81896e-12 0 0)
(-1.83368e-12 0 0)
(-1.48105e-12 0 0)
(-9.36564e-13 0 0)
(7.81171e-14 0 0)
(-3.12792e-12 0 0)
(-2.61735e-12 0 0)
(-1.91685e-12 0 0)
(-4.27453e-14 0 0)
(-3.00419e-12 0 0)
(-6.71931e-13 0 0)
(4.4809e-13 0 0)
(2.46728e-12 0 0)
(-1.17833e-12 0 0)
(3.20513e-12 0 0)
(3.52913e-12 0 0)
(2.47106e-12 0 0)
(1.9864e-12 0 0)
(4.8e-12 0 0)
(2.24157e-13 0 0)
(4.13989e-12 0 0)
(-1.43498e-13 0 0)
(2.58079e-12 0 0)
(4.17231e-13 0 0)
(6.04035e-12 0 0)
(4.16666e-12 0 0)
(8.6909e-12 0 0)
(5.95738e-12 0 0)
(5.53314e-12 0 0)
(4.97893e-12 0 0)
(3.15705e-12 0 0)
(2.67949e-12 0 0)
(4.90264e-12 0 0)
(4.17718e-12 0 0)
(1.99948e-12 0 0)
(5.29313e-12 0 0)
(3.7323e-12 0 0)
(3.84068e-12 0 0)
(3.49362e-12 0 0)
(3.77867e-12 0 0)
(1.69774e-12 0 0)
(6.1779e-12 0 0)
(4.45318e-12 0 0)
(9.71019e-12 0 0)
(8.47964e-12 0 0)
(1.26135e-11 0 0)
(1.02693e-11 0 0)
(1.18859e-11 0 0)
(8.03084e-12 0 0)
(1.13706e-11 0 0)
(1.14918e-11 0 0)
(8.99379e-12 0 0)
(9.7363e-12 0 0)
(6.44718e-12 0 0)
(6.0859e-12 0 0)
(4.25818e-12 0 0)
(4.45137e-12 0 0)
(1.82823e-12 0 0)
(7.49184e-13 0 0)
(2.71722e-12 0 0)
(4.29177e-12 0 0)
(3.5245e-12 0 0)
(1.71089e-12 0 0)
(4.52709e-12 0 0)
(5.00182e-12 0 0)
(5.1836e-12 0 0)
(6.72615e-12 0 0)
(5.07044e-12 0 0)
(5.31921e-12 0 0)
(8.27525e-12 0 0)
(7.35344e-12 0 0)
(6.28465e-12 0 0)
(4.44354e-12 0 0)
(5.2386e-12 0 0)
(4.79148e-12 0 0)
(8.01496e-12 0 0)
(8.36015e-12 0 0)
(8.88395e-12 0 0)
(5.61487e-12 0 0)
(5.6741e-12 0 0)
(2.15008e-12 0 0)
(3.11091e-12 0 0)
(2.7935e-12 0 0)
(1.60599e-12 0 0)
(1.00452e-12 0 0)
(2.26829e-12 0 0)
(1.14394e-12 0 0)
(-3.36287e-13 0 0)
(-4.72709e-14 0 0)
(-5.25601e-14 0 0)
(2.14915e-12 0 0)
(3.57981e-12 0 0)
(2.53362e-12 0 0)
(2.5708e-12 0 0)
(2.73232e-12 0 0)
(4.2266e-12 0 0)
(3.52652e-12 0 0)
(4.59465e-12 0 0)
(7.69676e-12 0 0)
(6.73642e-12 0 0)
(6.8447e-12 0 0)
(3.36772e-12 0 0)
(5.76439e-12 0 0)
(2.53471e-12 0 0)
(5.28651e-12 0 0)
(4.98072e-12 0 0)
(7.67757e-12 0 0)
(4.05444e-12 0 0)
(4.36054e-12 0 0)
(2.68782e-12 0 0)
(3.14063e-12 0 0)
(2.30963e-12 0 0)
(-7.7358e-13 0 0)
(4.10457e-12 0 0)
(2.03196e-12 0 0)
(1.26843e-12 0 0)
(3.96622e-12 0 0)
(4.63047e-12 0 0)
(6.51767e-12 0 0)
(7.96923e-12 0 0)
(8.51032e-12 0 0)
(5.86097e-12 0 0)
(4.89062e-12 0 0)
(5.43734e-12 0 0)
(7.36773e-12 0 0)
(8.69484e-12 0 0)
(5.8305e-12 0 0)
(6.99096e-12 0 0)
(3.28927e-12 0 0)
(4.23808e-12 0 0)
(1.45245e-12 0 0)
(4.44701e-12 0 0)
(6.73757e-12 0 0)
(8.87519e-12 0 0)
(7.24156e-12 0 0)
(8.02093e-12 0 0)
(4.43659e-12 0 0)
(4.76234e-12 0 0)
(4.00741e-12 0 0)
(4.69536e-12 0 0)
(3.80039e-12 0 0)
(6.42715e-13 0 0)
(2.61885e-12 0 0)
(-3.46188e-13 0 0)
(2.27645e-12 0 0)
(2.16832e-12 0 0)
(3.96148e-12 0 0)
(2.41002e-12 0 0)
(7.68089e-12 0 0)
(5.62497e-12 0 0)
(1.04559e-11 0 0)
(6.87795e-12 0 0)
(9.25015e-12 0 0)
(6.21165e-12 0 0)
(8.00478e-12 0 0)
(9.53303e-12 0 0)
(8.82597e-12 0 0)
(8.30772e-12 0 0)
(8.83291e-12 0 0)
(9.64953e-12 0 0)
(6.33959e-12 0 0)
(5.76475e-12 0 0)
(6.45741e-12 0 0)
(6.57404e-12 0 0)
(3.36612e-12 0 0)
(5.17715e-12 0 0)
(1.24989e-12 0 0)
(5.49351e-12 0 0)
(3.817e-12 0 0)
(6.20552e-12 0 0)
(4.2866e-12 0 0)
(9.53561e-12 0 0)
(5.30006e-12 0 0)
(1.0314e-11 0 0)
(3.75156e-12 0 0)
(8.24189e-12 0 0)
(2.38142e-13 0 0)
(4.93822e-12 0 0)
(1.08702e-12 0 0)
(5.80065e-12 0 0)
(3.608e-12 0 0)
(3.93724e-12 0 0)
(4.56511e-12 0 0)
(5.66456e-13 0 0)
(6.48518e-12 0 0)
(2.86905e-12 0 0)
(7.31858e-12 0 0)
(-6.21851e-13 0 0)
(5.03493e-12 0 0)
(4.00794e-13 0 0)
(5.28171e-12 0 0)
(1.81838e-14 0 0)
(5.00421e-12 0 0)
(4.16654e-13 0 0)
(5.18583e-13 0 0)
(1.5798e-12 0 0)
(3.58366e-12 0 0)
(1.81967e-12 0 0)
(7.3984e-13 0 0)
(3.15026e-12 0 0)
(2.00518e-12 0 0)
(2.19036e-13 0 0)
(4.47378e-12 0 0)
(3.51221e-12 0 0)
(2.49856e-12 0 0)
(4.71556e-12 0 0)
(5.09906e-12 0 0)
(4.46884e-12 0 0)
(4.43308e-12 0 0)
(3.53495e-12 0 0)
(7.58363e-12 0 0)
(3.38184e-12 0 0)
(5.2962e-12 0 0)
(-2.36278e-13 0 0)
(1.62558e-12 0 0)
(-1.8064e-12 0 0)
(-2.14842e-12 0 0)
(-3.20726e-16 0 0)
(1.0265e-12 0 0)
(-2.54623e-12 0 0)
(-1.16056e-13 0 0)
(-1.3905e-13 0 0)
(-2.02495e-12 0 0)
(5.21321e-13 0 0)
(-1.7895e-12 0 0)
(1.33042e-12 0 0)
(-4.21011e-13 0 0)
(6.47204e-12 0 0)
(2.04855e-12 0 0)
(3.56928e-12 0 0)
(2.53181e-12 0 0)
(5.9918e-12 0 0)
(4.27061e-12 0 0)
(6.49883e-12 0 0)
(4.94169e-12 0 0)
(7.67435e-12 0 0)
(4.21412e-12 0 0)
(5.767e-12 0 0)
(4.62045e-12 0 0)
(4.01394e-12 0 0)
(2.27425e-12 0 0)
(3.77985e-12 0 0)
(3.55508e-12 0 0)
(2.38487e-12 0 0)
(4.74956e-12 0 0)
(6.21462e-12 0 0)
(5.14683e-12 0 0)
(6.44086e-12 0 0)
(5.92464e-12 0 0)
(5.05134e-12 0 0)
(6.94308e-12 0 0)
(6.64187e-12 0 0)
(8.60931e-12 0 0)
(5.22942e-12 0 0)
(7.58825e-12 0 0)
(6.28413e-12 0 0)
(7.70769e-12 0 0)
(7.84404e-12 0 0)
(7.04302e-12 0 0)
(7.66587e-12 0 0)
(8.6403e-12 0 0)
(7.98358e-12 0 0)
(6.61261e-12 0 0)
(7.8361e-12 0 0)
(4.70979e-12 0 0)
(8.43997e-12 0 0)
(6.67093e-12 0 0)
(7.68773e-12 0 0)
(7.05851e-12 0 0)
(4.11683e-12 0 0)
(4.69276e-12 0 0)
(1.66829e-12 0 0)
(2.28797e-12 0 0)
(4.034e-13 0 0)
(-5.92514e-13 0 0)
(2.30728e-12 0 0)
(2.73079e-13 0 0)
(-9.05905e-13 0 0)
(-1.3614e-12 0 0)
(-1.75393e-12 0 0)
(-7.27837e-13 0 0)
(-8.36686e-14 0 0)
(-8.34532e-13 0 0)
(2.46722e-12 0 0)
(8.52707e-12 0 0)
(2.53256e-11 0 0)
(6.5606e-11 0 0)
(1.59923e-10 0 0)
(3.89235e-10 0 0)
(9.22588e-10 0 0)
(2.15984e-09 0 0)
(5.00008e-09 0 0)
(1.14488e-08 0 0)
(2.59326e-08 0 0)
(5.81099e-08 0 0)
(1.28809e-07 0 0)
(2.8241e-07 0 0)
(6.12337e-07 0 0)
(1.31278e-06 0 0)
(2.78228e-06 0 0)
(5.82796e-06 0 0)
(1.20626e-05 0 0)
(2.46638e-05 0 0)
(4.98042e-05 0 0)
(9.92966e-05 0 0)
(0.000195405 0 0)
(0.000379428 0 0)
(0.000726727 0 0)
(0.00137246 0 0)
(0.00255475 0 0)
(0.00468519 0 0)
(0.00846133 0 0)
(0.0150406 0 0)
(0.0263008 0 0)
(0.0452159 0 0)
(0.0763743 0 0)
(0.126656 0 0)
(0.206056 0 0)
(0.328587 0 0)
(0.513118 0 0)
(0.783862 0 0)
(1.17011 0 0)
(1.70461 0 0)
(2.41955 0 0)
(3.33819 0 0)
(4.46276 0 0)
(5.77541 0 0)
(7.25492 0 0)
(8.88471 0 0)
(10.6494 0 0)
(12.533 0 0)
(14.5194 0 0)
(16.5936 0 0)
(18.7419 0 0)
(20.9527 0 0)
(23.216 0 0)
(25.5236 0 0)
(27.8687 0 0)
(30.2458 0 0)
(32.6503 0 0)
(35.0784 0 0)
(37.527 0 0)
(39.9936 0 0)
(42.4759 0 0)
(44.972 0 0)
(47.4804 0 0)
(49.9997 0 0)
(52.5286 0 0)
(55.0661 0 0)
(57.6113 0 0)
(60.1633 0 0)
(62.7213 0 0)
(65.2847 0 0)
(67.8527 0 0)
(70.4248 0 0)
(73.0005 0 0)
(75.5791 0 0)
(78.1602 0 0)
(80.7434 0 0)
(83.3281 0 0)
(85.9138 0 0)
(88.5002 0 0)
(91.0868 0 0)
(93.6731 0 0)
(96.2587 0 0)
(98.8432 0 0)
(101.426 0 0)
(104.007 0 0)
(106.585 0 0)
(109.16 0 0)
(111.731 0 0)
(114.298 0 0)
(116.861 0 0)
(119.418 0 0)
(121.969 0 0)
(124.513 0 0)
(127.05 0 0)
(129.579 0 0)
(132.098 0 0)
(134.607 0 0)
(137.106 0 0)
(139.592 0 0)
(142.065 0 0)
(144.523 0 0)
(146.965 0 0)
(149.39 0 0)
(151.796 0 0)
(154.181 0 0)
(156.544 0 0)
(158.881 0 0)
(161.191 0 0)
(163.471 0 0)
(165.718 0 0)
(167.93 0 0)
(170.103 0 0)
(172.232 0 0)
(174.316 0 0)
(176.346 0 0)
(178.323 0 0)
(180.237 0 0)
(182.086 0 0)
(183.864 0 0)
(185.561 0 0)
(187.179 0 0)
(188.702 0 0)
(190.13 0 0)
(191.456 0 0)
(192.671 0 0)
(193.775 0 0)
(194.762 0 0)
(195.63 0 0)
(196.377 0 0)
(197.009 0 0)
(197.528 0 0)
(197.937 0 0)
(198.253 0 0)
(198.484 0 0)
(198.639 0 0)
(198.735 0 0)
(198.79 0 0)
(198.812 0 0)
(198.816 0 0)
(198.815 0 0)
(198.813 0 0)
(198.806 0 0)
(198.792 0 0)
(198.763 0 0)
(198.726 0 0)
(198.69 0 0)
(198.659 0 0)
(198.634 0 0)
(198.616 0 0)
(198.603 0 0)
(198.595 0 0)
(198.59 0 0)
(198.588 0 0)
(198.587 0 0)
(198.586 0 0)
(198.585 0 0)
(198.584 0 0)
(198.583 0 0)
(198.581 0 0)
(198.58 0 0)
(198.579 0 0)
(198.578 0 0)
(198.577 0 0)
(198.576 0 0)
(198.575 0 0)
(198.575 0 0)
(198.574 0 0)
(198.574 0 0)
(198.573 0 0)
(198.572 0 0)
(198.571 0 0)
(198.57 0 0)
(198.569 0 0)
(198.568 0 0)
(198.566 0 0)
(198.565 0 0)
(198.564 0 0)
(198.564 0 0)
(198.563 0 0)
(198.562 0 0)
(198.56 0 0)
(198.559 0 0)
(198.559 0 0)
(198.559 0 0)
(198.558 0 0)
(198.557 0 0)
(198.556 0 0)
(198.555 0 0)
(198.555 0 0)
(198.554 0 0)
(198.554 0 0)
(198.553 0 0)
(198.552 0 0)
(198.551 0 0)
(198.551 0 0)
(198.552 0 0)
(198.552 0 0)
(198.552 0 0)
(198.551 0 0)
(198.551 0 0)
(198.55 0 0)
(198.549 0 0)
(198.548 0 0)
(198.548 0 0)
(198.547 0 0)
(198.547 0 0)
(198.546 0 0)
(198.545 0 0)
(198.544 0 0)
(198.543 0 0)
(198.543 0 0)
(198.543 0 0)
(198.542 0 0)
(198.541 0 0)
(198.54 0 0)
(198.54 0 0)
(198.54 0 0)
(198.54 0 0)
(198.542 0 0)
(198.552 0 0)
(198.575 0 0)
(198.632 0 0)
(198.77 0 0)
(198.927 0 0)
(198.865 0 0)
(198.647 0 0)
(198.533 0 0)
(198.493 0 0)
(198.468 0 0)
(198.459 0 0)
(198.488 0 0)
(198.525 0 0)
(198.527 0 0)
(198.504 0 0)
(198.504 0 0)
(198.534 0 0)
(198.548 0 0)
(198.521 0 0)
(198.497 0 0)
(198.517 0 0)
(198.547 0 0)
(198.531 0 0)
(198.493 0 0)
(198.492 0 0)
(198.526 0 0)
(198.535 0 0)
(198.501 0 0)
(198.479 0 0)
(198.506 0 0)
(198.538 0 0)
(198.522 0 0)
(198.484 0 0)
(198.487 0 0)
(198.522 0 0)
(198.53 0 0)
(198.495 0 0)
(198.472 0 0)
(198.498 0 0)
(198.527 0 0)
(198.507 0 0)
(198.468 0 0)
(198.473 0 0)
(198.509 0 0)
(198.512 0 0)
(198.472 0 0)
(198.45 0 0)
(198.479 0 0)
(198.505 0 0)
(198.476 0 0)
(198.434 0 0)
(198.442 0 0)
(198.479 0 0)
(198.474 0 0)
(198.427 0 0)
(198.405 0 0)
(198.433 0 0)
(198.454 0 0)
(198.417 0 0)
(198.369 0 0)
(198.374 0 0)
(198.405 0 0)
(198.391 0 0)
(198.336 0 0)
(198.309 0 0)
(198.331 0 0)
(198.34 0 0)
(198.29 0 0)
(198.233 0 0)
(198.231 0 0)
(198.25 0 0)
(198.215 0 0)
(198.141 0 0)
(198.103 0 0)
(198.111 0 0)
(198.099 0 0)
(198.025 0 0)
(197.949 0 0)
(197.922 0 0)
(197.913 0 0)
(197.854 0 0)
(197.755 0 0)
(197.682 0 0)
(197.644 0 0)
(197.594 0 0)
(197.483 0 0)
(197.361 0 0)
(197.278 0 0)
(197.214 0 0)
(197.09 0 0)
(196.907 0 0)
(196.753 0 0)
(196.646 0 0)
(196.507 0 0)
(196.256 0 0)
(195.985 0 0)
(195.791 0 0)
(195.629 0 0)
(195.319 0 0)
(194.866 0 0)
(194.506 0 0)
(194.258 0 0)
(193.857 0 0)
(193.12 0 0)
(192.339 0 0)
(191.426 0 0)
(189.779 0 0)
(186.436 0 0)
(177.69 0 0)
(147.435 0 0)
(80.6958 0 0)
(24.4862 0 0)
(6.32092 0 0)
(1.52644 0 0)
(0.362045 0 0)
(0.0855117 0 0)
(0.0201789 0 0)
(0.00476049 0 0)
(0.00112287 0 0)
(0.000264824 0 0)
(6.24525e-05 0 0)
(1.47271e-05 0 0)
(3.47262e-06 0 0)
(8.18788e-07 0 0)
(1.93045e-07 0 0)
(4.55128e-08 0 0)
(1.07313e-08 0 0)
(2.5339e-09 0 0)
(6.0059e-10 0 0)
(1.46823e-10 0 0)
(3.73789e-11 0 0)
(1.32099e-11 0 0)
(6.72705e-12 0 0)
(4.20661e-12 0 0)
(2.9934e-12 0 0)
(-6.19956e-13 0 0)
(1.6843e-12 0 0)
(-4.8823e-12 0 0)
(-1.45424e-12 0 0)
(-5.2043e-12 0 0)
(-4.63134e-12 0 0)
(-8.30983e-12 0 0)
(-5.52608e-12 0 0)
(-7.98623e-12 0 0)
(-7.00589e-12 0 0)
(-7.24196e-12 0 0)
(-5.36211e-12 0 0)
(-4.28707e-12 0 0)
(-4.01834e-12 0 0)
(-3.43955e-12 0 0)
(-2.66761e-12 0 0)
(-6.31503e-12 0 0)
(-6.12697e-12 0 0)
(-4.90198e-12 0 0)
(-5.01578e-12 0 0)
(-1.45111e-12 0 0)
(6.51351e-13 0 0)
(9.86994e-13 0 0)
(3.81825e-12 0 0)
(2.6684e-12 0 0)
(1.8029e-12 0 0)
(-5.63335e-13 0 0)
(2.71784e-13 0 0)
(-5.00647e-12 0 0)
(-3.71613e-12 0 0)
(-4.20952e-12 0 0)
(-5.78602e-12 0 0)
(-4.50914e-12 0 0)
(-2.38258e-12 0 0)
(-4.09186e-12 0 0)
(-1.54963e-12 0 0)
(7.38402e-13 0 0)
(-1.23889e-12 0 0)
(1.31556e-12 0 0)
(-3.40092e-12 0 0)
(5.70801e-14 0 0)
(-3.0213e-12 0 0)
(-1.22475e-12 0 0)
(-5.21861e-12 0 0)
(2.0216e-12 0 0)
(2.43548e-12 0 0)
(2.16e-12 0 0)
(-1.36684e-12 0 0)
(2.63211e-12 0 0)
(-1.50946e-12 0 0)
(2.21828e-12 0 0)
(-2.57617e-12 0 0)
(1.40546e-12 0 0)
(-2.98951e-12 0 0)
(-2.09202e-13 0 0)
(-2.94853e-13 0 0)
(-4.55041e-12 0 0)
(-3.86195e-12 0 0)
(-3.54725e-12 0 0)
(-5.7454e-12 0 0)
(-4.15362e-12 0 0)
(-6.01433e-12 0 0)
(-6.25131e-12 0 0)
(-3.44389e-12 0 0)
(-4.11564e-12 0 0)
(-4.41816e-12 0 0)
(-6.58271e-12 0 0)
(-3.74578e-12 0 0)
(-7.69259e-12 0 0)
(-2.42442e-12 0 0)
(-7.32229e-12 0 0)
(-4.50901e-12 0 0)
(-6.74412e-12 0 0)
(-1.59166e-12 0 0)
(-6.00346e-12 0 0)
(-4.07862e-12 0 0)
(-2.33753e-12 0 0)
(2.20743e-13 0 0)
(-7.00651e-13 0 0)
(2.48245e-12 0 0)
(3.97167e-13 0 0)
(2.09781e-12 0 0)
(3.04019e-12 0 0)
(2.02415e-12 0 0)
(1.01837e-12 0 0)
(-3.36034e-13 0 0)
(2.03183e-12 0 0)
(-2.98003e-12 0 0)
(-1.4408e-12 0 0)
(-3.06305e-13 0 0)
(-9.00191e-13 0 0)
(-4.40221e-12 0 0)
(-1.17223e-12 0 0)
(-4.93163e-12 0 0)
(-2.25572e-12 0 0)
(-6.64337e-12 0 0)
(6.76656e-13 0 0)
(-3.86453e-12 0 0)
(-4.61249e-13 0 0)
(-3.77186e-12 0 0)
(-2.18153e-12 0 0)
(-8.4989e-13 0 0)
(8.51691e-13 0 0)
(5.02953e-12 0 0)
(1.23914e-12 0 0)
(1.58858e-12 0 0)
(-2.6072e-12 0 0)
(-9.95982e-13 0 0)
(-2.83014e-12 0 0)
(-2.61078e-12 0 0)
(-4.36272e-12 0 0)
(-1.29432e-12 0 0)
(-6.64128e-12 0 0)
(-6.38856e-12 0 0)
(-2.86736e-12 0 0)
(-2.37621e-12 0 0)
(-1.70651e-12 0 0)
(-1.67669e-12 0 0)
(-2.8453e-12 0 0)
(1.71075e-12 0 0)
(-6.20578e-13 0 0)
(4.85662e-12 0 0)
(-1.71874e-12 0 0)
(3.07731e-12 0 0)
(2.23855e-12 0 0)
(1.15878e-12 0 0)
(8.01468e-13 0 0)
(-2.53192e-14 0 0)
(1.11677e-13 0 0)
(1.30366e-12 0 0)
(-1.78942e-13 0 0)
(2.05892e-12 0 0)
(3.3741e-12 0 0)
(2.68671e-12 0 0)
(2.1786e-12 0 0)
(2.24754e-12 0 0)
(1.5982e-12 0 0)
(1.1149e-13 0 0)
(-2.93503e-13 0 0)
(-3.43117e-12 0 0)
(-4.43303e-12 0 0)
(-6.1697e-12 0 0)
(-4.78058e-12 0 0)
(-2.77707e-12 0 0)
(-4.02756e-12 0 0)
(-4.46821e-12 0 0)
(-3.28404e-12 0 0)
(-3.44858e-12 0 0)
(-1.03991e-12 0 0)
(-8.55525e-13 0 0)
(-1.23061e-12 0 0)
(-2.59961e-12 0 0)
(-1.18699e-12 0 0)
(2.67097e-12 0 0)
(1.17828e-12 0 0)
(2.20034e-12 0 0)
(3.94617e-12 0 0)
(2.0818e-12 0 0)
(2.27061e-12 0 0)
(-1.98328e-12 0 0)
(-1.5667e-12 0 0)
(-1.90698e-12 0 0)
(-1.92166e-12 0 0)
(-3.76003e-12 0 0)
(-2.07513e-12 0 0)
(7.57145e-13 0 0)
(2.93209e-12 0 0)
(3.70386e-12 0 0)
(7.00755e-12 0 0)
(3.62226e-12 0 0)
(5.79504e-12 0 0)
(2.29865e-12 0 0)
(3.03041e-12 0 0)
(2.94323e-12 0 0)
(3.09787e-12 0 0)
(5.75284e-12 0 0)
(5.09226e-12 0 0)
(5.40564e-12 0 0)
(4.13498e-12 0 0)
(3.33803e-12 0 0)
(1.78687e-12 0 0)
(2.38655e-12 0 0)
(4.13227e-12 0 0)
(5.86992e-13 0 0)
(2.2369e-12 0 0)
(4.37238e-12 0 0)
(3.70081e-12 0 0)
(3.89756e-12 0 0)
(3.83568e-12 0 0)
(7.02124e-12 0 0)
(8.03738e-12 0 0)
(5.78416e-12 0 0)
(7.18065e-12 0 0)
(7.4861e-12 0 0)
(4.31479e-12 0 0)
(4.66571e-12 0 0)
(4.05406e-12 0 0)
(5.69367e-12 0 0)
(6.1432e-12 0 0)
(5.77482e-12 0 0)
(7.67616e-12 0 0)
(7.20808e-12 0 0)
(5.07561e-12 0 0)
(6.64643e-12 0 0)
(4.17379e-12 0 0)
(3.28154e-12 0 0)
(-2.79952e-13 0 0)
(-4.15195e-13 0 0)
(-1.04903e-12 0 0)
(1.49269e-12 0 0)
(-1.3127e-12 0 0)
(8.56834e-14 0 0)
(-2.00944e-12 0 0)
(-2.08079e-12 0 0)
(-1.74734e-12 0 0)
(-5.20785e-12 0 0)
(-3.64526e-12 0 0)
(-4.65236e-12 0 0)
(1.05794e-12 0 0)
(-1.51045e-12 0 0)
(3.65874e-12 0 0)
(2.25575e-12 0 0)
(3.13121e-12 0 0)
(2.46873e-12 0 0)
(1.60332e-12 0 0)
(-1.16495e-12 0 0)
(5.05385e-13 0 0)
(2.70403e-12 0 0)
(-2.99291e-13 0 0)
(2.279e-12 0 0)
(1.63752e-12 0 0)
(1.40482e-13 0 0)
(-1.16303e-12 0 0)
(1.58561e-12 0 0)
(5.73174e-12 0 0)
(5.98517e-12 0 0)
(5.3907e-12 0 0)
(5.91306e-12 0 0)
(8.96429e-12 0 0)
(8.92584e-12 0 0)
(9.69011e-12 0 0)
(1.20783e-11 0 0)
(1.29958e-11 0 0)
(1.30776e-11 0 0)
(1.24032e-11 0 0)
(1.12089e-11 0 0)
(1.12847e-11 0 0)
(1.26575e-11 0 0)
(1.06696e-11 0 0)
(9.68676e-12 0 0)
(7.87911e-12 0 0)
(8.15786e-12 0 0)
(6.33153e-12 0 0)
(5.07283e-12 0 0)
(1.79309e-12 0 0)
(2.34802e-12 0 0)
(4.19914e-12 0 0)
(8.01624e-13 0 0)
(3.21932e-12 0 0)
(5.36081e-12 0 0)
(3.88021e-12 0 0)
(8.46837e-12 0 0)
(5.07318e-12 0 0)
(5.22948e-12 0 0)
(3.71324e-12 0 0)
(9.34367e-12 0 0)
(5.09192e-12 0 0)
(7.29202e-12 0 0)
(5.18678e-12 0 0)
(7.31076e-12 0 0)
(9.3565e-12 0 0)
(6.58548e-12 0 0)
(6.94914e-12 0 0)
(7.97966e-12 0 0)
(8.05873e-12 0 0)
(8.13901e-12 0 0)
(9.99546e-12 0 0)
(8.3823e-12 0 0)
(8.9567e-12 0 0)
(1.09971e-11 0 0)
(1.36894e-11 0 0)
(1.19823e-11 0 0)
(1.28147e-11 0 0)
(1.03257e-11 0 0)
(1.29695e-11 0 0)
(1.11183e-11 0 0)
(1.17882e-11 0 0)
(1.1783e-11 0 0)
(1.47168e-11 0 0)
(1.34495e-11 0 0)
(1.64684e-11 0 0)
(1.71544e-11 0 0)
(1.7386e-11 0 0)
(1.52305e-11 0 0)
(1.44407e-11 0 0)
(1.32865e-11 0 0)
(1.50342e-11 0 0)
(1.71503e-11 0 0)
(1.47449e-11 0 0)
(1.52072e-11 0 0)
(1.41552e-11 0 0)
(1.63487e-11 0 0)
(1.64258e-11 0 0)
(1.67014e-11 0 0)
(1.65834e-11 0 0)
(1.93343e-11 0 0)
(1.66928e-11 0 0)
(2.02221e-11 0 0)
(1.76425e-11 0 0)
(2.07851e-11 0 0)
(1.77778e-11 0 0)
(2.12074e-11 0 0)
(2.04888e-11 0 0)
)
;

boundaryField
{
    sides
    {
        type            zeroGradient;
    }
    empty
    {
        type            empty;
    }
}


// ************************************************************************* //
