/*--------------------------------*- C++ -*----------------------------------*\
| =========                 |                                                 |
| \\      /  F ield         | OpenFOAM: The Open Source CFD Toolbox           |
|  \\    /   O peration     | Version:  4.1                                   |
|   \\  /    A nd           | Web:      www.OpenFOAM.org                      |
|    \\/     M anipulation  |                                                 |
\*---------------------------------------------------------------------------*/
FoamFile
{
    version     2.0;
    format      ascii;
    class       volScalarField;
    location    "0.0062";
    object      mag(U);
}
// * * * * * * * * * * * * * * * * * * * * * * * * * * * * * * * * * * * * * //

dimensions      [0 1 -1 0 0 0 0];

internalField   nonuniform List<scalar> 
1000
(
1.62424e-11
1.96576e-11
2.30733e-11
2.40396e-11
2.63396e-11
2.83594e-11
3.06287e-11
3.06166e-11
2.98245e-11
2.90372e-11
2.83705e-11
3.03553e-11
2.85684e-11
3.02051e-11
2.75035e-11
2.82405e-11
2.4948e-11
2.88157e-11
2.5349e-11
3.0342e-11
2.67452e-11
3.02353e-11
2.76668e-11
3.0142e-11
2.74609e-11
2.82678e-11
2.41028e-11
2.34967e-11
2.28341e-11
2.17309e-11
2.08809e-11
2.06502e-11
2.10924e-11
1.87622e-11
1.89399e-11
1.51025e-11
1.69292e-11
1.25617e-11
1.39727e-11
8.40498e-12
1.113e-11
7.52883e-12
9.32073e-12
4.46046e-12
7.28233e-12
1.93165e-12
3.68441e-12
1.9537e-12
4.65508e-12
2.09827e-12
5.0868e-12
2.66892e-12
5.22745e-12
5.674e-12
5.99092e-12
5.35209e-12
6.59047e-12
7.99163e-12
5.5419e-12
4.96489e-12
3.18728e-13
3.52328e-12
1.33975e-12
4.67675e-12
1.1188e-12
6.40141e-12
4.78832e-12
5.69796e-12
8.01799e-13
2.43164e-12
5.6846e-14
4.30444e-12
4.84317e-13
5.66009e-12
5.74826e-13
6.41651e-12
1.44655e-12
6.18147e-12
3.10694e-12
2.7915e-12
6.61678e-13
1.03683e-12
3.43126e-12
2.68967e-12
9.5536e-13
4.43751e-12
4.10202e-12
8.50459e-12
4.8704e-12
7.11547e-12
4.55783e-12
7.92917e-12
4.68326e-13
3.17384e-12
2.13075e-13
4.26183e-12
5.45591e-12
7.48956e-12
6.12079e-12
1.00539e-11
8.00896e-12
9.21065e-12
1.02308e-11
8.55215e-12
1.03305e-11
1.16121e-11
1.16999e-11
1.19084e-11
1.06947e-11
1.16672e-11
1.20516e-11
9.602e-12
8.43557e-12
6.09237e-12
7.66758e-12
7.34848e-12
9.15061e-12
9.97666e-12
1.22366e-11
1.14355e-11
1.15987e-11
8.7283e-12
9.29972e-12
1.12625e-11
1.14303e-11
1.16365e-11
1.22386e-11
1.31095e-11
9.80441e-12
1.16986e-11
1.10639e-11
1.33999e-11
1.30546e-11
1.28156e-11
1.29486e-11
1.32903e-11
1.37255e-11
1.25032e-11
1.13036e-11
1.12783e-11
1.36389e-11
1.39596e-11
1.43898e-11
1.55333e-11
1.39095e-11
1.50443e-11
1.47401e-11
1.46965e-11
1.84136e-11
1.84138e-11
1.92248e-11
1.77137e-11
2.07968e-11
1.8451e-11
2.05263e-11
1.97573e-11
2.04114e-11
2.23307e-11
2.2029e-11
2.41989e-11
2.39591e-11
2.52088e-11
2.39072e-11
2.2828e-11
2.40647e-11
2.43219e-11
2.36866e-11
2.21482e-11
2.14582e-11
2.27833e-11
2.42545e-11
2.34842e-11
2.24821e-11
2.33007e-11
2.21209e-11
2.13429e-11
1.99571e-11
2.21927e-11
1.88049e-11
2.21882e-11
2.03187e-11
2.27411e-11
2.23587e-11
2.32833e-11
2.49263e-11
2.60866e-11
2.50545e-11
2.6881e-11
2.71369e-11
2.64942e-11
2.70281e-11
2.44646e-11
2.97382e-11
2.86097e-11
3.74067e-11
5.05645e-11
8.54051e-11
1.45354e-10
2.76466e-10
5.30935e-10
1.04026e-09
2.02123e-09
3.91703e-09
7.53577e-09
1.44113e-08
2.73731e-08
5.16443e-08
9.67596e-08
1.80021e-07
3.32552e-07
6.09907e-07
1.11044e-06
2.00683e-06
3.59964e-06
6.40754e-06
1.13177e-05
1.98335e-05
3.44793e-05
5.94534e-05
0.000101669
0.000172396
0.000289815
0.000482942
0.000797571
0.00130515
0.00211582
0.00339726
0.00540142
0.00850177
0.0132439
0.0204128
0.0311198
0.046911
0.0698978
0.102906
0.149634
0.214806
0.304299
0.425193
0.585725
0.795069
1.0629
1.39866
1.81042
2.30318
2.87661
3.5248
4.23957
5.01364
5.8411
6.71678
7.63583
8.59362
9.58581
10.6084
11.6578
12.7307
13.8243
14.9362
16.0641
17.2063
18.3612
19.5272
20.7034
21.8886
23.082
24.2827
25.4902
26.7038
27.9229
29.1473
30.3763
31.6097
32.8472
34.0884
35.3331
36.581
37.832
39.0859
40.3424
41.6014
42.8628
44.1264
45.3921
46.6597
47.9292
49.2005
50.4735
51.748
53.024
54.3014
55.5802
56.8602
58.1414
59.4238
60.7072
61.9917
63.2771
64.5634
65.8506
67.1386
68.4273
69.7168
71.0069
72.2977
73.589
74.8809
76.1732
77.466
78.7593
80.0529
81.3469
82.6412
83.9357
85.2305
86.5255
87.8206
89.1159
90.4113
91.7067
93.0022
94.2976
95.593
96.8883
98.1835
99.4786
100.773
102.068
103.362
104.656
105.95
107.244
108.536
109.829
111.121
112.412
113.703
114.993
116.283
117.572
118.86
120.147
121.433
122.719
124.003
125.286
126.568
127.85
129.129
130.408
131.685
132.961
134.235
135.507
136.778
138.047
139.314
140.579
141.842
143.102
144.36
145.616
146.869
148.12
149.367
150.611
151.852
153.09
154.324
155.554
156.78
158.001
159.218
160.43
161.637
162.839
164.034
165.224
166.406
167.582
168.75
169.911
171.062
172.205
173.338
174.461
175.573
176.672
177.76
178.833
179.893
180.936
181.964
182.973
183.964
184.934
185.882
186.808
187.709
188.583
189.429
190.246
191.031
191.783
192.499
193.18
193.821
194.423
194.983
195.502
195.977
196.409
196.797
197.143
197.446
197.708
197.932
198.119
198.273
198.396
198.492
198.564
198.617
198.652
198.674
198.686
198.69
198.691
198.692
198.691
198.689
198.684
198.675
198.663
198.649
198.636
198.625
198.616
198.609
198.604
198.6
198.597
198.594
198.593
198.592
198.591
198.59
198.589
198.589
198.588
198.588
198.587
198.586
198.585
198.585
198.584
198.584
198.583
198.583
198.582
198.581
198.581
198.58
198.579
198.579
198.578
198.578
198.577
198.577
198.576
198.576
198.575
198.575
198.574
198.574
198.573
198.573
198.572
198.572
198.571
198.571
198.57
198.57
198.569
198.569
198.568
198.568
198.567
198.567
198.566
198.566
198.565
198.565
198.564
198.564
198.563
198.563
198.562
198.562
198.561
198.561
198.56
198.56
198.559
198.559
198.559
198.558
198.558
198.557
198.557
198.557
198.556
198.556
198.556
198.556
198.555
198.555
198.555
198.555
198.555
198.554
198.554
198.554
198.554
198.554
198.553
198.553
198.553
198.553
198.553
198.553
198.553
198.552
198.552
198.552
198.552
198.552
198.551
198.551
198.551
198.551
198.551
198.55
198.55
198.55
198.55
198.549
198.549
198.549
198.549
198.548
198.548
198.548
198.548
198.548
198.547
198.547
198.547
198.547
198.547
198.546
198.546
198.546
198.546
198.546
198.546
198.545
198.545
198.545
198.545
198.545
198.545
198.545
198.545
198.544
198.544
198.544
198.544
198.544
198.544
198.543
198.543
198.543
198.543
198.543
198.543
198.542
198.542
198.542
198.542
198.542
198.541
198.541
198.541
198.541
198.541
198.541
198.54
198.54
198.54
198.54
198.539
198.539
198.539
198.539
198.539
198.538
198.537
198.537
198.536
198.535
198.534
198.534
198.538
198.545
198.556
198.578
198.642
198.782
198.83
198.717
198.595
198.505
198.472
198.487
198.505
198.503
198.499
198.518
198.542
198.538
198.517
198.521
198.546
198.551
198.525
198.512
198.536
198.559
198.542
198.513
198.523
198.554
198.554
198.522
198.509
198.534
198.553
198.531
198.505
198.519
198.55
198.543
198.509
198.508
198.54
198.552
198.523
198.501
198.523
198.552
198.54
198.507
198.509
198.541
198.549
198.519
198.502
198.527
198.552
198.533
198.502
198.512
198.545
198.544
198.511
198.502
198.532
198.552
198.525
198.497
198.515
198.549
198.541
198.506
198.501
198.533
198.548
198.521
198.497
198.518
198.547
198.534
198.5
198.504
198.539
198.545
198.511
198.493
198.523
198.549
198.527
198.493
198.505
198.541
198.541
198.505
198.493
198.524
198.546
198.52
198.49
198.507
198.542
198.534
198.496
198.493
198.53
198.544
198.509
198.484
198.512
198.545
198.525
198.485
198.494
198.535
198.539
198.498
198.479
198.512
198.542
198.518
198.48
198.49
198.529
198.531
198.492
198.476
198.509
198.534
198.506
198.471
198.486
198.525
198.518
198.476
198.467
198.504
198.522
198.487
198.455
198.479
198.515
198.497
198.452
198.453
198.494
198.501
198.457
198.43
198.46
198.491
198.463
198.417
198.423
198.462
198.46
198.412
198.388
198.418
198.441
198.405
198.358
198.366
198.401
198.386
198.331
198.309
198.337
198.349
198.3
198.251
198.257
198.282
198.253
198.19
198.166
198.184
198.177
198.116
198.062
198.058
198.062
198.014
197.941
197.906
197.901
197.869
197.789
197.721
197.691
197.664
197.587
197.489
197.425
197.384
197.309
197.182
197.071
197
196.92
196.765
196.587
196.463
196.368
196.195
195.939
195.726
195.582
195.39
195.034
194.664
194.412
194.161
193.688
193.105
192.639
192.13
191.259
189.682
186.781
180.087
159.254
101.826
35.3233
9.24381
2.26552
0.541578
0.12846
0.0304075
0.00719338
0.00170152
0.000402476
9.52012e-05
2.25185e-05
5.32634e-06
1.25983e-06
2.97984e-07
7.04856e-08
1.66772e-08
3.95116e-09
9.38602e-10
2.26134e-10
5.94929e-11
2.0006e-11
1.14566e-11
1.19374e-11
1.173e-11
1.29196e-11
1.33587e-11
1.58515e-11
1.63092e-11
1.61178e-11
1.74294e-11
1.8615e-11
2.01778e-11
1.96066e-11
2.18228e-11
2.08627e-11
2.07431e-11
1.97072e-11
1.99091e-11
1.91874e-11
2.1077e-11
2.20002e-11
2.33361e-11
2.47479e-11
2.31611e-11
2.50764e-11
2.2708e-11
2.08488e-11
2.13359e-11
2.05994e-11
2.1685e-11
2.09727e-11
2.00517e-11
2.00777e-11
2.13261e-11
2.1341e-11
2.19609e-11
2.1688e-11
2.31823e-11
2.38474e-11
2.11414e-11
2.24913e-11
2.29627e-11
2.45893e-11
2.35221e-11
2.17924e-11
1.99214e-11
1.84106e-11
1.69339e-11
1.73359e-11
1.60401e-11
1.78878e-11
1.41446e-11
1.69682e-11
1.66968e-11
1.75684e-11
1.88085e-11
2.08776e-11
1.92073e-11
2.0774e-11
2.2555e-11
2.16789e-11
2.39459e-11
2.50825e-11
2.62125e-11
2.73131e-11
2.80861e-11
2.77283e-11
2.72789e-11
2.44496e-11
2.76809e-11
2.83829e-11
2.99665e-11
2.6703e-11
2.88878e-11
2.75772e-11
3.07713e-11
2.86154e-11
3.02614e-11
3.06601e-11
3.27454e-11
3.27282e-11
3.22128e-11
3.15574e-11
3.11878e-11
3.15365e-11
3.09635e-11
3.16815e-11
3.07388e-11
3.10725e-11
3.27071e-11
3.07127e-11
3.27126e-11
3.11415e-11
3.09385e-11
2.67559e-11
2.85024e-11
2.76878e-11
2.71516e-11
2.79061e-11
2.64042e-11
2.60987e-11
2.68319e-11
2.61967e-11
2.62721e-11
2.82536e-11
2.81709e-11
2.72804e-11
2.43409e-11
2.55309e-11
2.35727e-11
2.19621e-11
2.0578e-11
2.05296e-11
2.05992e-11
1.97705e-11
1.73644e-11
2.09122e-11
1.96694e-11
1.97886e-11
1.71301e-11
1.91414e-11
1.96001e-11
1.94167e-11
1.84961e-11
1.97297e-11
2.09731e-11
2.12e-11
2.06273e-11
1.99843e-11
2.2349e-11
2.06887e-11
2.01644e-11
1.93904e-11
2.17092e-11
2.11032e-11
2.26767e-11
2.12567e-11
2.25229e-11
2.12447e-11
2.5606e-11
2.3684e-11
2.72429e-11
2.49508e-11
2.77585e-11
2.58053e-11
)
;

boundaryField
{
    sides
    {
        type            calculated;
        value           nonuniform List<scalar> 2(2.58053e-11 1.62424e-11);
    }
    empty
    {
        type            empty;
    }
}


// ************************************************************************* //
