/*--------------------------------*- C++ -*----------------------------------*\
| =========                 |                                                 |
| \\      /  F ield         | OpenFOAM: The Open Source CFD Toolbox           |
|  \\    /   O peration     | Version:  4.1                                   |
|   \\  /    A nd           | Web:      www.OpenFOAM.org                      |
|    \\/     M anipulation  |                                                 |
\*---------------------------------------------------------------------------*/
FoamFile
{
    version     2.0;
    format      ascii;
    class       volScalarField;
    location    "0.0062";
    object      p;
}
// * * * * * * * * * * * * * * * * * * * * * * * * * * * * * * * * * * * * * //

dimensions      [1 -1 -2 0 0 0 0];

internalField   nonuniform List<scalar> 
1000
(
100000
100000
100000
100000
100000
100000
100000
100000
100000
100000
100000
100000
100000
100000
100000
100000
100000
100000
100000
100000
100000
100000
100000
100000
100000
100000
100000
100000
100000
100000
100000
100000
100000
100000
100000
100000
100000
100000
100000
100000
100000
100000
100000
100000
100000
100000
100000
100000
100000
100000
100000
100000
100000
100000
100000
100000
100000
100000
100000
100000
100000
100000
100000
100000
100000
100000
100000
100000
100000
100000
100000
100000
100000
100000
100000
100000
100000
100000
100000
100000
100000
100000
100000
100000
100000
100000
100000
100000
100000
100000
100000
100000
100000
100000
100000
100000
100000
100000
100000
100000
100000
100000
100000
100000
100000
100000
100000
100000
100000
100000
100000
100000
100000
100000
100000
100000
100000
100000
100000
100000
100000
100000
100000
100000
100000
100000
100000
100000
100000
100000
100000
100000
100000
100000
100000
100000
100000
100000
100000
100000
100000
100000
100000
100000
100000
100000
100000
100000
100000
100000
100000
100000
100000
100000
100000
100000
100000
100000
100000
100000
100000
100000
100000
100000
100000
100000
100000
100000
100000
100000
100000
100000
100000
100000
100000
100000
100000
100000
100000
100000
100000
100000
100000
100000
100000
100000
100000
100000
100000
100000
100000
100000
100000
100000
100000
100000
100000
100000
100000
100000
100000
100000
100000
100000
100000
100000
100000
100000
100000
100000
100000
100000
100000
100000
100000
100000
100000
100000
100000
100000
99999.9
99999.9
99999.8
99999.7
99999.6
99999.3
99998.8
99998.1
99997.1
99995.4
99992.9
99989.2
99983.8
99975.8
99964.4
99948.2
99925.5
99894.5
99852.5
99796.7
99723.9
99630.8
99514.1
99370.9
99199.4
98999.8
98774.5
98526.9
98259.5
97974.4
97673.7
97358.9
97031.9
96694.3
96347.4
95992.6
95631.1
95263.9
94891.8
94515.7
94136.2
93753.9
93369.2
92982.7
92594.5
92205.2
91814.9
91423.9
91032.3
90640.5
90248.4
89856.4
89464.4
89072.7
88681.2
88290.2
87899.7
87509.7
87120.3
86731.6
86343.6
85956.5
85570.1
85184.6
84800.1
84416.4
84033.8
83652.1
83271.5
82891.9
82513.4
82135.9
81759.6
81384.5
81010.5
80637.6
80266
79895.5
79526.3
79158.2
78791.4
78425.9
78061.6
77698.6
77336.8
76976.4
76617.2
76259.3
75902.7
75547.5
75193.6
74841
74489.7
74139.8
73791.2
73444
73098.1
72753.6
72410.5
72068.7
71728.3
71389.3
71051.7
70715.4
70380.6
70047.1
69715.1
69384.4
69055.2
68727.4
68401
68076
67752.5
67430.4
67109.7
66790.4
66472.6
66156.3
65841.4
65527.9
65216
64905.5
64596.4
64288.9
63982.9
63678.3
63375.2
63073.7
62773.7
62475.2
62178.2
61882.8
61589
61296.7
61006
60716.9
60429.4
60143.5
59859.2
59576.6
59295.7
59016.4
58738.9
58463.1
58189
57916.8
57646.3
57377.6
57110.8
56845.9
56583
56322
56063
55806
55551.2
55298.4
55047.9
54799.7
54553.8
54310.2
54069.2
53830.6
53594.8
53361.6
53131.2
52903.8
52679.5
52458.2
52240.4
52025.9
51815.2
51608
51405.1
51206
51011.5
50821.5
50636.2
50456.1
50281.2
50112
49948.5
49791.2
49640.4
49496.2
49359.1
49229.2
49106.8
48992.2
48885.6
48787.1
48696.9
48615
48541.2
48475.8
48418.1
48368.4
48325.8
48290.1
48261
48237.3
48218.9
48205
48194.9
48187.9
48183.5
48181.1
48180.1
48180.2
48180.2
48180.3
48180.7
48181.4
48182.9
48185
48187.4
48189.7
48191.9
48193.6
48195
48196
48196.8
48197.3
48197.7
48198
48198.2
48198.4
48198.5
48198.6
48198.8
48198.9
48199
48199.1
48199.1
48199.2
48199.4
48199.5
48199.6
48199.7
48199.8
48199.9
48200
48200.1
48200.1
48200.2
48200.3
48200.4
48200.5
48200.6
48200.7
48200.8
48200.9
48201
48201
48201.1
48201.2
48201.3
48201.4
48201.5
48201.5
48201.6
48201.7
48201.8
48201.8
48201.9
48202
48202.1
48202.1
48202.2
48202.3
48202.4
48202.5
48202.5
48202.6
48202.7
48202.8
48202.8
48202.9
48203
48203.1
48203.1
48203.2
48203.3
48203.3
48203.4
48203.5
48203.5
48203.6
48203.6
48203.7
48203.7
48203.8
48203.8
48203.8
48203.9
48203.9
48203.9
48204
48204
48204
48204.1
48204.1
48204.1
48204.1
48204.1
48204.1
48204.1
48204.2
48204.2
48204.2
48204.2
48204.2
48204.2
48204.2
48204.2
48204.2
48204.2
48204.2
48204.3
48204.3
48204.3
48204.3
48204.4
48204.4
48204.4
48204.4
48204.4
48204.5
48204.5
48204.5
48204.5
48204.5
48204.6
48204.6
48204.6
48204.6
48204.6
48204.6
48204.7
48204.7
48204.7
48204.7
48204.7
48204.7
48204.7
48204.8
48204.8
48204.8
48204.8
48204.8
48204.8
48204.8
48204.8
48204.8
48204.8
48204.8
48204.8
48204.8
48204.8
48204.8
48204.8
48204.8
48204.8
48204.8
48204.8
48204.8
48204.8
48204.8
48204.8
48204.8
48204.8
48204.8
48204.8
48204.8
48204.8
48204.9
48204.8
48204.8
48204.8
48204.9
48204.9
48204.9
48204.9
48204.9
48205.1
48205.1
48205.1
48205.1
48205.1
48205.1
48205.3
48205.3
48205.2
48204.9
48205
48205.2
48205.4
48207
48209.1
48210.8
48201.8
48203
48203.3
48197.6
48197.9
48208.5
48212
48204.6
48198.8
48205.2
48212
48207
48198.4
48200.5
48211.4
48212.2
48199.6
48195.6
48208.3
48215.8
48205.4
48194.9
48201.1
48214.3
48212.6
48198.2
48195.8
48209.5
48215.4
48203.6
48194.5
48203.4
48215.3
48210.3
48195.4
48196.8
48213
48215.5
48200
48193.7
48206.4
48216
48208.5
48195.1
48197.9
48213.4
48214.5
48198.7
48194.1
48208.3
48216.2
48205.4
48194
48200.6
48214.9
48212.6
48195.9
48194.7
48211.6
48216.7
48201.7
48192.6
48203.4
48216.3
48211
48194.6
48195.2
48212.4
48215.8
48200.2
48193
48205.4
48216.3
48207.8
48193.1
48197.4
48215
48214.8
48196.2
48192.4
48209.1
48217.2
48204.3
48192
48199.6
48215.6
48213.2
48194.9
48193
48210.3
48216.5
48202
48191.6
48201.9
48216.2
48210.5
48192.7
48194.1
48213.3
48216.1
48197.6
48190.3
48205.9
48217.5
48206.1
48190.3
48196.3
48215.7
48214.9
48194
48189.7
48208
48217.4
48204
48189.8
48196.9
48214.8
48213.1
48193.2
48190.1
48208.6
48216.2
48200.8
48188.6
48198.6
48214.9
48210
48190.4
48190.1
48210
48214.7
48195.9
48186.6
48201.2
48214.8
48204.4
48186.3
48190.2
48211.2
48211.9
48189.6
48183.4
48201.7
48212.8
48198.1
48182.1
48188.5
48208.3
48206.4
48183.5
48179.4
48198.5
48207.2
48189.2
48175.4
48184.3
48202.3
48196.3
48173.1
48171.4
48191.2
48196.9
48174.9
48163.5
48173.7
48188.9
48178.6
48157.3
48156.6
48174.2
48176.6
48152.4
48143.6
48152.3
48164
48148.6
48130.1
48128.9
48141.1
48140
48114
48106.9
48109.8
48117.7
48097
48078
48074.4
48079.5
48074.1
48038.9
48029.5
48029.4
48035.4
47996.5
47970.1
47963.9
47970.8
47946.3
47884.1
47867.8
47868.2
47869
47775.2
47729.9
47719.4
47731.9
47643.5
47521.1
47484.1
47470.8
47435.8
47135.1
46656.3
45939.4
43988.3
35091.9
27891.2
25758.1
25184.7
25044
25010.4
25002.5
25000.6
25000.1
25000
25000
25000
25000
25000
25000
25000
25000
25000
25000
25000
25000
25000
25000
25000
25000
25000
25000
25000
25000
25000
25000
25000
25000
25000
25000
25000
25000
25000
25000
25000
25000
25000
25000
25000
25000
25000
25000
25000
25000
25000
25000
25000
25000
25000
25000
25000
25000
25000
25000
25000
25000
25000
25000
25000
25000
25000
25000
25000
25000
25000
25000
25000
25000
25000
25000
25000
25000
25000
25000
25000
25000
25000
25000
25000
25000
25000
25000
25000
25000
25000
25000
25000
25000
25000
25000
25000
25000
25000
25000
25000
25000
25000
25000
25000
25000
25000
25000
25000
25000
25000
25000
25000
25000
25000
25000
25000
25000
25000
25000
25000
25000
25000
25000
25000
25000
25000
25000
25000
25000
25000
25000
25000
25000
25000
25000
25000
25000
25000
25000
25000
25000
25000
25000
25000
25000
25000
25000
25000
25000
25000
25000
25000
25000
25000
25000
25000
25000
25000
25000
25000
25000
25000
25000
25000
25000
25000
)
;

boundaryField
{
    sides
    {
        type            zeroGradient;
    }
    empty
    {
        type            empty;
    }
}


// ************************************************************************* //
