/*--------------------------------*- C++ -*----------------------------------*\
| =========                 |                                                 |
| \\      /  F ield         | OpenFOAM: The Open Source CFD Toolbox           |
|  \\    /   O peration     | Version:  4.1                                   |
|   \\  /    A nd           | Web:      www.OpenFOAM.org                      |
|    \\/     M anipulation  |                                                 |
\*---------------------------------------------------------------------------*/
FoamFile
{
    version     2.0;
    format      ascii;
    class       surfaceScalarField;
    location    "0.0062";
    object      phi;
}
// * * * * * * * * * * * * * * * * * * * * * * * * * * * * * * * * * * * * * //

dimensions      [1 0 -1 0 0 0 0];

internalField   nonuniform List<scalar> 
999
(
-6.22151e-11
-7.42801e-11
-8.18758e-11
-8.72404e-11
-9.61506e-11
-1.0133e-10
-1.08074e-10
-1.03505e-10
-1.04102e-10
-9.68399e-11
-1.04087e-10
-1.02283e-10
-1.00968e-10
-1.01643e-10
-9.6577e-11
-9.22e-11
-9.21219e-11
-9.59162e-11
-9.48575e-11
-9.99734e-11
-1.00513e-10
-9.8737e-11
-1.01231e-10
-1.01416e-10
-9.78488e-11
-8.94502e-11
-8.16627e-11
-8.22311e-11
-7.5417e-11
-7.52962e-11
-7.02869e-11
-7.39675e-11
-7.10045e-11
-6.38565e-11
-5.79021e-11
-5.77742e-11
-4.95746e-11
-4.77769e-11
-3.78151e-11
-3.31397e-11
-3.363e-11
-3.00631e-11
-2.31353e-11
-2.06768e-11
-1.55538e-11
-1.04379e-11
-9.14469e-12
-1.20508e-11
-1.12834e-11
-1.21361e-11
-1.35927e-11
-1.43885e-11
-1.94262e-11
-1.95541e-11
-2.05489e-11
-1.97105e-11
-2.5608e-11
-2.41229e-11
-1.83391e-11
-9.80549e-12
-5.90461e-12
-9.37206e-12
-9.47864e-12
-1.07221e-11
-1.39906e-11
-1.84812e-11
-1.82894e-11
-9.10205e-12
-3.03402e-12
-3.50298e-12
-7.65255e-12
-9.26548e-12
-9.62075e-12
-1.16671e-11
-1.17595e-11
-1.35074e-11
-1.36282e-11
-1.51914e-11
-1.1724e-11
-5.09459e-12
5.8975e-13
-4.39115e-12
-1.52056e-12
6.73595e-12
9.62785e-12
1.46301e-11
2.11458e-11
2.43361e-11
2.00586e-11
2.00799e-11
2.19984e-11
1.57314e-11
6.06093e-12
5.25091e-12
8.01492e-12
1.74012e-11
2.32916e-11
2.33413e-11
2.86917e-11
3.07807e-11
2.94165e-11
3.45395e-11
3.2756e-11
3.0937e-11
3.99609e-11
4.15028e-11
3.98401e-11
3.85327e-11
4.08207e-11
4.02238e-11
3.80425e-11
3.15197e-11
2.49258e-11
2.33271e-11
2.7093e-11
2.78959e-11
3.33316e-11
3.91012e-11
3.99538e-11
4.13891e-11
3.56124e-11
2.9587e-11
3.68061e-11
4.00462e-11
4.06146e-11
4.02025e-11
4.54321e-11
3.86606e-11
3.87601e-11
3.84333e-11
4.25118e-11
4.68319e-11
4.4956e-11
4.43521e-11
4.49702e-11
4.79332e-11
4.65192e-11
4.15881e-11
3.82343e-11
4.35918e-11
4.79758e-11
4.75069e-11
5.3582e-11
5.00293e-11
5.21894e-11
5.10596e-11
4.9809e-11
5.68079e-11
6.56257e-11
6.67768e-11
6.19096e-11
6.85461e-11
6.83897e-11
6.72955e-11
6.85958e-11
7.13527e-11
7.44649e-11
7.6021e-11
8.12292e-11
8.25935e-11
8.73683e-11
8.63452e-11
7.98863e-11
7.96945e-11
8.58194e-11
8.3098e-11
8.06892e-11
7.49054e-11
7.59499e-11
8.32685e-11
8.25011e-11
8.0945e-11
8.05613e-11
7.67173e-11
7.70086e-11
7.18714e-11
7.35838e-11
7.10614e-11
7.07914e-11
7.41167e-11
7.57154e-11
7.63407e-11
8.1485e-11
8.36593e-11
8.95142e-11
8.79723e-11
8.93223e-11
9.47225e-11
9.2875e-11
9.34506e-11
8.82139e-11
9.34222e-11
1.00684e-10
1.11726e-10
1.47871e-10
2.27942e-10
3.85292e-10
7.01789e-10
1.34445e-09
2.61834e-09
5.10415e-09
9.90717e-09
1.91193e-08
3.66655e-08
6.98525e-08
1.3219e-07
2.48441e-07
4.63682e-07
8.59308e-07
1.58113e-06
2.88825e-06
5.23732e-06
9.42634e-06
1.68379e-05
2.98465e-05
5.24934e-05
9.15937e-05
0.000158532
0.000272142
0.000463273
0.000781936
0.00130836
0.00216982
0.00356603
0.00580657
0.00936563
0.0149603
0.0236603
0.0370399
0.0573808
0.0879388
0.133283
0.19971
0.295732
0.432612
0.624915
0.890995
1.25331
1.73846
2.37671
3.20085
4.24424
5.53767
7.10474
8.95485
11.0732
13.427
15.985
18.7227
21.6197
24.6573
27.8175
31.0834
34.4394
37.8713
41.3665
44.9138
48.5036
52.1274
55.7779
59.449
63.1352
66.8321
70.5356
74.2423
77.9493
81.6541
85.3544
89.0483
92.7341
96.4104
100.076
103.729
107.369
110.995
114.607
118.203
121.783
125.346
128.891
132.419
135.929
139.42
142.893
146.346
149.78
153.194
156.588
159.962
163.315
166.648
169.96
173.252
176.522
179.772
183
186.207
189.392
192.557
195.699
198.821
201.92
204.998
208.055
211.089
214.102
217.093
220.063
223.01
225.936
228.84
231.722
234.583
237.421
240.238
243.033
245.806
248.558
251.288
253.996
256.682
259.347
261.99
264.611
267.211
269.789
272.346
274.881
277.394
279.887
282.357
284.807
287.235
289.641
292.027
294.391
296.734
299.055
301.356
303.635
305.894
308.131
310.347
312.542
314.716
316.87
319.002
321.114
323.204
325.274
327.323
329.351
331.358
333.345
335.31
337.255
339.18
341.083
342.966
344.827
346.668
348.488
350.288
352.066
353.824
355.56
357.276
358.97
360.643
362.295
363.925
365.534
367.122
368.688
370.232
371.753
373.253
374.73
376.185
377.617
379.026
380.41
381.772
383.108
384.424
385.707
386.976
388.203
389.425
390.595
391.763
392.883
393.98
395.061
396.074
397.115
398.053
399.019
399.92
400.771
401.644
402.4
403.182
403.907
404.551
405.23
405.799
406.342
406.886
407.313
407.747
408.145
408.448
408.762
409.026
409.221
409.419
409.576
409.682
409.785
409.864
409.909
409.945
409.975
409.987
409.988
409.99
409.99
409.987
409.982
409.978
409.973
409.965
409.95
409.938
409.928
409.918
409.912
409.906
409.9
409.897
409.894
409.89
409.888
409.887
409.886
409.884
409.883
409.882
409.88
409.878
409.877
409.875
409.873
409.872
409.871
409.869
409.868
409.867
409.865
409.863
409.862
409.86
409.859
409.857
409.856
409.854
409.853
409.851
409.849
409.847
409.846
409.844
409.843
409.841
409.84
409.838
409.836
409.835
409.833
409.831
409.829
409.828
409.826
409.824
409.823
409.821
409.818
409.817
409.815
409.813
409.811
409.809
409.807
409.805
409.804
409.801
409.799
409.797
409.795
409.793
409.791
409.789
409.787
409.784
409.782
409.78
409.778
409.775
409.773
409.772
409.769
409.766
409.764
409.763
409.76
409.757
409.755
409.753
409.751
409.747
409.744
409.743
409.74
409.737
409.734
409.731
409.73
409.727
409.723
409.72
409.717
409.715
409.711
409.707
409.704
409.701
409.698
409.694
409.69
409.687
409.684
409.68
409.675
409.67
409.667
409.664
409.66
409.654
409.648
409.644
409.641
409.637
409.632
409.625
409.618
409.614
409.611
409.607
409.6
409.591
409.583
409.577
409.573
409.57
409.565
409.555
409.543
409.534
409.527
409.523
409.52
409.512
409.498
409.483
409.472
409.464
409.459
409.454
409.446
409.428
409.408
409.391
409.379
409.373
409.368
409.358
409.335
409.306
409.281
409.262
409.252
409.245
409.235
409.214
409.17
409.123
409.081
409.051
409.032
409.022
409.012
408.995
408.952
408.841
408.724
408.618
408.544
408.497
408.468
408.458
408.477
408.58
408.733
408.802
408.824
408.805
407.824
401.441
381.719
360.924
342.075
325.958
313.106
302.773
294.553
288.139
283.584
280.51
278.188
276.282
275.1
274.635
274.286
273.766
273.364
273.376
273.612
273.544
273.153
273.093
273.478
273.573
273.267
273.098
273.274
273.544
273.473
273.13
273.127
273.514
273.584
273.191
273.072
273.401
273.597
273.402
273.109
273.187
273.55
273.58
273.18
273.096
273.445
273.6
273.369
273.114
273.242
273.573
273.549
273.162
273.119
273.523
273.616
273.271
273.102
273.34
273.613
273.498
273.13
273.142
273.566
273.631
273.217
273.099
273.394
273.614
273.458
273.136
273.19
273.58
273.604
273.172
273.096
273.503
273.648
273.35
273.098
273.266
273.621
273.572
273.144
273.107
273.556
273.653
273.286
273.097
273.321
273.628
273.529
273.134
273.138
273.584
273.648
273.201
273.076
273.435
273.665
273.434
273.088
273.196
273.633
273.63
273.133
273.058
273.549
273.697
273.325
273.055
273.249
273.647
273.603
273.127
273.068
273.549
273.677
273.295
273.062
273.286
273.643
273.552
273.104
273.084
273.577
273.671
273.206
273.037
273.361
273.656
273.464
273.058
273.118
273.604
273.646
273.104
272.994
273.466
273.672
273.33
272.999
273.152
273.606
273.58
273.045
272.968
273.481
273.638
273.209
272.948
273.154
273.564
273.472
272.963
272.923
273.453
273.565
273.025
272.848
273.131
273.485
273.287
272.83
272.832
273.327
273.404
272.819
272.706
272.989
273.288
272.985
272.619
272.646
273.065
273.08
272.518
272.448
272.66
272.925
272.505
272.247
272.266
272.566
272.538
271.965
271.929
272.039
272.304
271.683
271.429
271.46
271.748
271.547
270.715
270.67
270.878
271.217
269.835
269.592
269.709
270.291
269.376
268.035
267.982
268.464
268.673
265.711
265.354
265.683
266.725
263.251
257.598
252.373
238.12
199.683
62.4734
17.8343
4.44158
1.06547
0.253096
0.0599359
0.0141807
0.00335432
0.000793418
0.000187675
4.43922e-05
1.05003e-05
2.48364e-06
5.87448e-07
1.38949e-07
3.28691e-08
7.77942e-09
1.84413e-09
4.39639e-10
1.07999e-10
3.04876e-11
1.2383e-11
9.6243e-12
1.05462e-11
1.04894e-11
1.139e-11
1.25784e-11
1.43014e-11
1.39924e-11
1.41096e-11
1.60369e-11
1.74172e-11
1.66889e-11
1.84066e-11
1.85185e-11
1.79572e-11
1.78506e-11
1.74456e-11
1.66054e-11
1.7609e-11
1.85949e-11
1.9913e-11
2.08811e-11
2.06111e-11
2.1199e-11
2.07887e-11
1.89182e-11
1.84386e-11
1.80869e-11
1.82059e-11
1.90585e-11
1.75806e-11
1.7268e-11
1.82947e-11
1.82219e-11
1.89999e-11
1.88436e-11
1.91651e-11
2.08242e-11
1.94476e-11
1.86251e-11
1.9563e-11
2.0858e-11
2.10552e-11
2.01137e-11
1.78595e-11
1.64633e-11
1.53584e-11
1.45803e-11
1.50102e-11
1.49889e-11
1.35767e-11
1.35447e-11
1.45324e-11
1.49729e-11
1.57936e-11
1.76659e-11
1.71418e-11
1.71099e-11
1.88187e-11
1.94103e-11
1.97229e-11
2.10587e-11
2.27267e-11
2.2931e-11
2.44107e-11
2.39861e-11
2.38867e-11
2.21814e-11
2.27427e-11
2.45084e-11
2.57039e-11
2.4226e-11
2.44889e-11
2.39861e-11
2.56613e-11
2.56293e-11
2.57803e-11
2.66436e-11
2.73968e-11
2.86438e-11
2.82085e-11
2.81837e-11
2.65832e-11
2.73381e-11
2.66862e-11
2.77023e-11
2.72742e-11
2.69615e-11
2.7697e-11
2.74571e-11
2.70184e-11
2.79972e-11
2.7212e-11
2.53362e-11
2.3757e-11
2.42082e-11
2.41496e-11
2.37605e-11
2.35634e-11
2.26468e-11
2.30997e-11
2.32045e-11
2.27658e-11
2.32685e-11
2.48264e-11
2.43041e-11
2.2764e-11
2.10676e-11
2.18439e-11
1.9261e-11
1.87566e-11
1.75451e-11
1.79892e-11
1.80211e-11
1.60707e-11
1.61453e-11
1.80691e-11
1.72875e-11
1.59552e-11
1.55964e-11
1.66516e-11
1.73657e-11
1.64402e-11
1.61968e-11
1.74971e-11
1.88081e-11
1.78915e-11
1.7927e-11
1.83942e-11
1.84261e-11
1.79536e-11
1.74651e-11
1.74118e-11
1.90301e-11
1.865e-11
1.93978e-11
1.9261e-11
1.86429e-11
2.01741e-11
2.18954e-11
2.16307e-11
2.28102e-11
2.27622e-11
2.36309e-11
)
;

boundaryField
{
    sides
    {
        type            calculated;
        value           nonuniform List<scalar> 2(2.24181e-11 5.64622e-11);
    }
    empty
    {
        type            empty;
        value           nonuniform 0();
    }
}


// ************************************************************************* //
