/*--------------------------------*- C++ -*----------------------------------*\
| =========                 |                                                 |
| \\      /  F ield         | OpenFOAM: The Open Source CFD Toolbox           |
|  \\    /   O peration     | Version:  4.1                                   |
|   \\  /    A nd           | Web:      www.OpenFOAM.org                      |
|    \\/     M anipulation  |                                                 |
\*---------------------------------------------------------------------------*/
FoamFile
{
    version     2.0;
    format      ascii;
    class       volScalarField;
    location    "0.0062";
    object      T;
}
// * * * * * * * * * * * * * * * * * * * * * * * * * * * * * * * * * * * * * //

dimensions      [0 0 0 1 0 0 0];

internalField   nonuniform List<scalar> 
1000
(
400
400
400
400
400
400
400
400
400
400
400
400
400
400
400
400
400
400
400
400
400
400
400
400
400
400
400
400
400
400
400
400
400
400
400
400
400
400
400
400
400
400
400
400
400
400
400
400
400
400
400
400
400
400
400
400
400
400
400
400
400
400
400
400
400
400
400
400
400
400
400
400
400
400
400
400
400
400
400
400
400
400
400
400
400
400
400
400
400
400
400
400
400
400
400
400
400
400
400
400
400
400
400
400
400
400
400
400
400
400
400
400
400
400
400
400
400
400
400
400
400
400
400
400
400
400
400
400
400
400
400
400
400
400
400
400
400
400
400
400
400
400
400
400
400
400
400
400
400
400
400
400
400
400
400
400
400
400
400
400
400
400
400
400
400
400
400
400
400
400
400
400
400
400
400
400
400
400
400
400
400
400
400
400
400
400
400
400
400
400
400
400
400
400
400
400
400
400
400
400
400
400
400
400
400
400
400
400
400
400
400
400
400
400
400
400
400
400
400
400
400
400
400
400
399.999
399.999
399.999
399.998
399.997
399.995
399.992
399.988
399.981
399.972
399.959
399.941
399.915
399.879
399.831
399.767
399.684
399.577
399.443
399.278
399.081
398.851
398.591
398.304
397.995
397.664
397.314
396.947
396.565
396.17
395.763
395.345
394.918
394.484
394.042
393.595
393.142
392.684
392.222
391.757
391.288
390.817
390.343
389.866
389.388
388.907
388.425
387.941
387.456
386.97
386.483
385.994
385.505
385.015
384.524
384.032
383.54
383.047
382.553
382.059
381.565
381.07
380.575
380.079
379.584
379.088
378.591
378.095
377.599
377.102
376.605
376.108
375.611
375.114
374.617
374.12
373.623
373.127
372.63
372.133
371.636
371.14
370.643
370.147
369.651
369.155
368.659
368.163
367.668
367.173
366.678
366.183
365.689
365.195
364.701
364.208
363.714
363.222
362.729
362.237
361.745
361.254
360.763
360.272
359.782
359.293
358.803
358.315
357.826
357.339
356.851
356.365
355.878
355.393
354.908
354.423
353.94
353.457
352.974
352.492
352.011
351.531
351.051
350.572
350.094
349.617
349.14
348.665
348.19
347.716
347.244
346.772
346.301
345.831
345.363
344.895
344.429
343.964
343.5
343.038
342.577
342.117
341.659
341.203
340.748
340.295
339.844
339.395
338.947
338.502
338.059
337.618
337.18
336.744
336.311
335.881
335.454
335.03
334.611
334.19
333.784
333.363
332.978
332.546
332.199
331.739
331.447
330.955
330.709
330.218
329.963
329.55
329.212
328.932
328.51
328.3
327.921
327.637
327.412
327.045
326.873
326.599
326.328
326.194
325.924
325.751
325.628
325.408
325.303
325.2
325.043
324.982
324.911
324.812
324.78
324.743
324.689
324.673
324.663
324.64
324.633
324.634
324.633
324.632
324.632
324.634
324.635
324.637
324.64
324.645
324.651
324.654
324.66
324.664
324.666
324.67
324.671
324.672
324.674
324.675
324.676
324.677
324.678
324.679
324.679
324.68
324.681
324.682
324.683
324.684
324.684
324.685
324.686
324.687
324.688
324.689
324.69
324.69
324.691
324.692
324.693
324.694
324.695
324.696
324.697
324.698
324.699
324.7
324.701
324.702
324.703
324.704
324.705
324.706
324.707
324.708
324.709
324.71
324.711
324.712
324.714
324.715
324.715
324.717
324.718
324.719
324.72
324.722
324.723
324.724
324.726
324.727
324.728
324.729
324.731
324.732
324.733
324.735
324.736
324.737
324.739
324.741
324.742
324.743
324.745
324.747
324.748
324.749
324.751
324.753
324.754
324.755
324.758
324.76
324.761
324.762
324.764
324.767
324.768
324.769
324.771
324.774
324.776
324.778
324.779
324.782
324.785
324.786
324.788
324.79
324.794
324.796
324.797
324.799
324.803
324.806
324.809
324.81
324.812
324.816
324.821
324.824
324.825
324.827
324.831
324.836
324.84
324.843
324.844
324.847
324.853
324.858
324.863
324.865
324.867
324.871
324.877
324.884
324.89
324.893
324.895
324.898
324.904
324.913
324.922
324.928
324.931
324.933
324.937
324.945
324.957
324.969
324.977
324.981
324.983
324.987
324.998
325.014
325.03
325.041
325.047
325.051
325.055
325.067
325.089
325.112
325.13
325.14
325.145
325.15
325.161
325.188
325.225
325.261
325.29
325.309
325.319
325.324
325.332
325.353
325.417
325.511
325.6
325.674
325.726
325.754
325.763
325.76
325.723
325.613
325.511
325.453
325.452
325.766
328.29
338.921
358.675
379.116
398.864
417.033
433.023
446.473
457.33
465.8
472.225
476.936
480.26
482.544
484.108
485.172
485.838
486.217
486.46
486.649
486.763
486.785
486.777
486.802
486.848
486.848
486.8
486.786
486.822
486.841
486.806
486.771
486.79
486.827
486.815
486.764
486.76
486.808
486.818
486.77
486.744
486.776
486.806
486.787
486.74
486.741
486.788
486.794
486.745
486.724
486.762
486.788
486.759
486.718
486.73
486.776
486.772
486.718
486.708
486.756
486.774
486.731
486.698
486.723
486.765
486.755
486.7
486.695
486.747
486.76
486.714
486.687
486.718
486.754
486.734
486.684
486.69
486.745
486.749
486.692
486.675
486.721
486.749
486.714
486.671
486.687
486.739
486.736
486.678
486.666
486.716
486.738
486.698
486.661
486.685
486.732
486.721
486.662
486.66
486.719
486.732
486.677
486.649
486.69
486.729
486.701
486.648
486.658
486.72
486.724
486.659
486.641
486.692
486.725
486.69
486.642
486.655
486.713
486.714
486.652
486.637
486.689
486.717
486.675
486.633
486.656
486.709
486.701
486.637
486.63
486.689
486.708
486.654
486.621
486.658
486.704
486.681
486.62
486.625
486.691
486.7
486.632
486.608
486.658
486.696
486.659
486.604
486.616
486.68
486.681
486.61
486.592
486.646
486.678
486.63
486.582
486.602
486.661
486.651
486.576
486.565
486.623
486.646
486.584
486.544
486.568
486.618
486.596
486.525
486.519
486.572
486.588
486.515
486.484
486.505
486.545
486.508
486.446
486.44
486.476
486.481
486.4
486.375
486.381
486.409
486.355
486.291
486.281
486.293
486.286
486.176
486.153
486.152
486.174
486.067
485.976
485.949
485.97
485.935
485.733
485.667
485.672
485.711
485.414
485.256
485.255
485.297
485.029
484.659
484.584
484.509
484.402
483.577
481.994
479.766
475.174
445.683
413.195
403.474
400.846
400.202
400.048
400.011
400.003
400.001
400
400
400
400
400
400
400
400
400
400
400
400
400
400
400
400
400
400
400
400
400
400
400
400
400
400
400
400
400
400
400
400
400
400
400
400
400
400
400
400
400
400
400
400
400
400
400
400
400
400
400
400
400
400
400
400
400
400
400
400
400
400
400
400
400
400
400
400
400
400
400
400
400
400
400
400
400
400
400
400
400
400
400
400
400
400
400
400
400
400
400
400
400
400
400
400
400
400
400
400
400
400
400
400
400
400
400
400
400
400
400
400
400
400
400
400
400
400
400
400
400
400
400
400
400
400
400
400
400
400
400
400
400
400
400
400
400
400
400
400
400
400
400
400
400
400
400
400
400
400
400
400
400
400
400
400
400
)
;

boundaryField
{
    sides
    {
        type            zeroGradient;
    }
    empty
    {
        type            empty;
    }
}


// ************************************************************************* //
