/*--------------------------------*- C++ -*----------------------------------*\
| =========                 |                                                 |
| \\      /  F ield         | OpenFOAM: The Open Source CFD Toolbox           |
|  \\    /   O peration     | Version:  4.1                                   |
|   \\  /    A nd           | Web:      www.OpenFOAM.org                      |
|    \\/     M anipulation  |                                                 |
\*---------------------------------------------------------------------------*/
FoamFile
{
    version     2.0;
    format      ascii;
    class       volVectorField;
    location    "0.0062";
    object      U;
}
// * * * * * * * * * * * * * * * * * * * * * * * * * * * * * * * * * * * * * //

dimensions      [0 1 -1 0 0 0 0];

internalField   nonuniform List<vector> 
1000
(
(-1.62424e-11 0 0)
(-1.96576e-11 0 0)
(-2.30733e-11 0 0)
(-2.40396e-11 0 0)
(-2.63396e-11 0 0)
(-2.83594e-11 0 0)
(-3.06287e-11 0 0)
(-3.06166e-11 0 0)
(-2.98245e-11 0 0)
(-2.90372e-11 0 0)
(-2.83705e-11 0 0)
(-3.03553e-11 0 0)
(-2.85684e-11 0 0)
(-3.02051e-11 0 0)
(-2.75035e-11 0 0)
(-2.82405e-11 0 0)
(-2.4948e-11 0 0)
(-2.88157e-11 0 0)
(-2.5349e-11 0 0)
(-3.0342e-11 0 0)
(-2.67452e-11 0 0)
(-3.02353e-11 0 0)
(-2.76668e-11 0 0)
(-3.0142e-11 0 0)
(-2.74609e-11 0 0)
(-2.82678e-11 0 0)
(-2.41028e-11 0 0)
(-2.34967e-11 0 0)
(-2.28341e-11 0 0)
(-2.17309e-11 0 0)
(-2.08809e-11 0 0)
(-2.06502e-11 0 0)
(-2.10924e-11 0 0)
(-1.87622e-11 0 0)
(-1.89399e-11 0 0)
(-1.51025e-11 0 0)
(-1.69292e-11 0 0)
(-1.25617e-11 0 0)
(-1.39727e-11 0 0)
(-8.40498e-12 0 0)
(-1.113e-11 0 0)
(-7.52883e-12 0 0)
(-9.32073e-12 0 0)
(-4.46046e-12 0 0)
(-7.28233e-12 0 0)
(-1.93165e-12 0 0)
(-3.68441e-12 0 0)
(-1.9537e-12 0 0)
(-4.65508e-12 0 0)
(-2.09827e-12 0 0)
(-5.0868e-12 0 0)
(-2.66892e-12 0 0)
(-5.22745e-12 0 0)
(-5.674e-12 0 0)
(-5.99092e-12 0 0)
(-5.35209e-12 0 0)
(-6.59047e-12 0 0)
(-7.99163e-12 0 0)
(-5.5419e-12 0 0)
(-4.96489e-12 0 0)
(-3.18728e-13 0 0)
(-3.52328e-12 0 0)
(-1.33975e-12 0 0)
(-4.67675e-12 0 0)
(-1.1188e-12 0 0)
(-6.40141e-12 0 0)
(-4.78832e-12 0 0)
(-5.69796e-12 0 0)
(8.01799e-13 0 0)
(-2.43164e-12 0 0)
(5.6846e-14 0 0)
(-4.30444e-12 0 0)
(-4.84317e-13 0 0)
(-5.66009e-12 0 0)
(-5.74826e-13 0 0)
(-6.41651e-12 0 0)
(-1.44655e-12 0 0)
(-6.18147e-12 0 0)
(-3.10694e-12 0 0)
(-2.7915e-12 0 0)
(-6.61678e-13 0 0)
(1.03683e-12 0 0)
(-3.43126e-12 0 0)
(2.68967e-12 0 0)
(9.5536e-13 0 0)
(4.43751e-12 0 0)
(4.10202e-12 0 0)
(8.50459e-12 0 0)
(4.8704e-12 0 0)
(7.11547e-12 0 0)
(4.55783e-12 0 0)
(7.92917e-12 0 0)
(4.68326e-13 0 0)
(3.17384e-12 0 0)
(2.13075e-13 0 0)
(4.26183e-12 0 0)
(5.45591e-12 0 0)
(7.48956e-12 0 0)
(6.12079e-12 0 0)
(1.00539e-11 0 0)
(8.00896e-12 0 0)
(9.21065e-12 0 0)
(1.02308e-11 0 0)
(8.55215e-12 0 0)
(1.03305e-11 0 0)
(1.16121e-11 0 0)
(1.16999e-11 0 0)
(1.19084e-11 0 0)
(1.06947e-11 0 0)
(1.16672e-11 0 0)
(1.20516e-11 0 0)
(9.602e-12 0 0)
(8.43557e-12 0 0)
(6.09237e-12 0 0)
(7.66758e-12 0 0)
(7.34848e-12 0 0)
(9.15061e-12 0 0)
(9.97666e-12 0 0)
(1.22366e-11 0 0)
(1.14355e-11 0 0)
(1.15987e-11 0 0)
(8.7283e-12 0 0)
(9.29972e-12 0 0)
(1.12625e-11 0 0)
(1.14303e-11 0 0)
(1.16365e-11 0 0)
(1.22386e-11 0 0)
(1.31095e-11 0 0)
(9.80441e-12 0 0)
(1.16986e-11 0 0)
(1.10639e-11 0 0)
(1.33999e-11 0 0)
(1.30546e-11 0 0)
(1.28156e-11 0 0)
(1.29486e-11 0 0)
(1.32903e-11 0 0)
(1.37255e-11 0 0)
(1.25032e-11 0 0)
(1.13036e-11 0 0)
(1.12783e-11 0 0)
(1.36389e-11 0 0)
(1.39596e-11 0 0)
(1.43898e-11 0 0)
(1.55333e-11 0 0)
(1.39095e-11 0 0)
(1.50443e-11 0 0)
(1.47401e-11 0 0)
(1.46965e-11 0 0)
(1.84136e-11 0 0)
(1.84138e-11 0 0)
(1.92248e-11 0 0)
(1.77137e-11 0 0)
(2.07968e-11 0 0)
(1.8451e-11 0 0)
(2.05263e-11 0 0)
(1.97573e-11 0 0)
(2.04114e-11 0 0)
(2.23307e-11 0 0)
(2.2029e-11 0 0)
(2.41989e-11 0 0)
(2.39591e-11 0 0)
(2.52088e-11 0 0)
(2.39072e-11 0 0)
(2.2828e-11 0 0)
(2.40647e-11 0 0)
(2.43219e-11 0 0)
(2.36866e-11 0 0)
(2.21482e-11 0 0)
(2.14582e-11 0 0)
(2.27833e-11 0 0)
(2.42545e-11 0 0)
(2.34842e-11 0 0)
(2.24821e-11 0 0)
(2.33007e-11 0 0)
(2.21209e-11 0 0)
(2.13429e-11 0 0)
(1.99571e-11 0 0)
(2.21927e-11 0 0)
(1.88049e-11 0 0)
(2.21882e-11 0 0)
(2.03187e-11 0 0)
(2.27411e-11 0 0)
(2.23587e-11 0 0)
(2.32833e-11 0 0)
(2.49263e-11 0 0)
(2.60866e-11 0 0)
(2.50545e-11 0 0)
(2.6881e-11 0 0)
(2.71369e-11 0 0)
(2.64942e-11 0 0)
(2.70281e-11 0 0)
(2.44646e-11 0 0)
(2.97382e-11 0 0)
(2.86097e-11 0 0)
(3.74067e-11 0 0)
(5.05645e-11 0 0)
(8.54051e-11 0 0)
(1.45354e-10 0 0)
(2.76466e-10 0 0)
(5.30935e-10 0 0)
(1.04026e-09 0 0)
(2.02123e-09 0 0)
(3.91703e-09 0 0)
(7.53577e-09 0 0)
(1.44113e-08 0 0)
(2.73731e-08 0 0)
(5.16443e-08 0 0)
(9.67596e-08 0 0)
(1.80021e-07 0 0)
(3.32552e-07 0 0)
(6.09907e-07 0 0)
(1.11044e-06 0 0)
(2.00683e-06 0 0)
(3.59964e-06 0 0)
(6.40754e-06 0 0)
(1.13177e-05 0 0)
(1.98335e-05 0 0)
(3.44793e-05 0 0)
(5.94534e-05 0 0)
(0.000101669 0 0)
(0.000172396 0 0)
(0.000289815 0 0)
(0.000482942 0 0)
(0.000797571 0 0)
(0.00130515 0 0)
(0.00211582 0 0)
(0.00339726 0 0)
(0.00540142 0 0)
(0.00850177 0 0)
(0.0132439 0 0)
(0.0204128 0 0)
(0.0311198 0 0)
(0.046911 0 0)
(0.0698978 0 0)
(0.102906 0 0)
(0.149634 0 0)
(0.214806 0 0)
(0.304299 0 0)
(0.425193 0 0)
(0.585725 0 0)
(0.795069 0 0)
(1.0629 0 0)
(1.39866 0 0)
(1.81042 0 0)
(2.30318 0 0)
(2.87661 0 0)
(3.5248 0 0)
(4.23957 0 0)
(5.01364 0 0)
(5.8411 0 0)
(6.71678 0 0)
(7.63583 0 0)
(8.59362 0 0)
(9.58581 0 0)
(10.6084 0 0)
(11.6578 0 0)
(12.7307 0 0)
(13.8243 0 0)
(14.9362 0 0)
(16.0641 0 0)
(17.2063 0 0)
(18.3612 0 0)
(19.5272 0 0)
(20.7034 0 0)
(21.8886 0 0)
(23.082 0 0)
(24.2827 0 0)
(25.4902 0 0)
(26.7038 0 0)
(27.9229 0 0)
(29.1473 0 0)
(30.3763 0 0)
(31.6097 0 0)
(32.8472 0 0)
(34.0884 0 0)
(35.3331 0 0)
(36.581 0 0)
(37.832 0 0)
(39.0859 0 0)
(40.3424 0 0)
(41.6014 0 0)
(42.8628 0 0)
(44.1264 0 0)
(45.3921 0 0)
(46.6597 0 0)
(47.9292 0 0)
(49.2005 0 0)
(50.4735 0 0)
(51.748 0 0)
(53.024 0 0)
(54.3014 0 0)
(55.5802 0 0)
(56.8602 0 0)
(58.1414 0 0)
(59.4238 0 0)
(60.7072 0 0)
(61.9917 0 0)
(63.2771 0 0)
(64.5634 0 0)
(65.8506 0 0)
(67.1386 0 0)
(68.4273 0 0)
(69.7168 0 0)
(71.0069 0 0)
(72.2977 0 0)
(73.589 0 0)
(74.8809 0 0)
(76.1732 0 0)
(77.466 0 0)
(78.7593 0 0)
(80.0529 0 0)
(81.3469 0 0)
(82.6412 0 0)
(83.9357 0 0)
(85.2305 0 0)
(86.5255 0 0)
(87.8206 0 0)
(89.1159 0 0)
(90.4113 0 0)
(91.7067 0 0)
(93.0022 0 0)
(94.2976 0 0)
(95.593 0 0)
(96.8883 0 0)
(98.1835 0 0)
(99.4786 0 0)
(100.773 0 0)
(102.068 0 0)
(103.362 0 0)
(104.656 0 0)
(105.95 0 0)
(107.244 0 0)
(108.536 0 0)
(109.829 0 0)
(111.121 0 0)
(112.412 0 0)
(113.703 0 0)
(114.993 0 0)
(116.283 0 0)
(117.572 0 0)
(118.86 0 0)
(120.147 0 0)
(121.433 0 0)
(122.719 0 0)
(124.003 0 0)
(125.286 0 0)
(126.568 0 0)
(127.85 0 0)
(129.129 0 0)
(130.408 0 0)
(131.685 0 0)
(132.961 0 0)
(134.235 0 0)
(135.507 0 0)
(136.778 0 0)
(138.047 0 0)
(139.314 0 0)
(140.579 0 0)
(141.842 0 0)
(143.102 0 0)
(144.36 0 0)
(145.616 0 0)
(146.869 0 0)
(148.12 0 0)
(149.367 0 0)
(150.611 0 0)
(151.852 0 0)
(153.09 0 0)
(154.324 0 0)
(155.554 0 0)
(156.78 0 0)
(158.001 0 0)
(159.218 0 0)
(160.43 0 0)
(161.637 0 0)
(162.839 0 0)
(164.034 0 0)
(165.224 0 0)
(166.406 0 0)
(167.582 0 0)
(168.75 0 0)
(169.911 0 0)
(171.062 0 0)
(172.205 0 0)
(173.338 0 0)
(174.461 0 0)
(175.573 0 0)
(176.672 0 0)
(177.76 0 0)
(178.833 0 0)
(179.893 0 0)
(180.936 0 0)
(181.964 0 0)
(182.973 0 0)
(183.964 0 0)
(184.934 0 0)
(185.882 0 0)
(186.808 0 0)
(187.709 0 0)
(188.583 0 0)
(189.429 0 0)
(190.246 0 0)
(191.031 0 0)
(191.783 0 0)
(192.499 0 0)
(193.18 0 0)
(193.821 0 0)
(194.423 0 0)
(194.983 0 0)
(195.502 0 0)
(195.977 0 0)
(196.409 0 0)
(196.797 0 0)
(197.143 0 0)
(197.446 0 0)
(197.708 0 0)
(197.932 0 0)
(198.119 0 0)
(198.273 0 0)
(198.396 0 0)
(198.492 0 0)
(198.564 0 0)
(198.617 0 0)
(198.652 0 0)
(198.674 0 0)
(198.686 0 0)
(198.69 0 0)
(198.691 0 0)
(198.692 0 0)
(198.691 0 0)
(198.689 0 0)
(198.684 0 0)
(198.675 0 0)
(198.663 0 0)
(198.649 0 0)
(198.636 0 0)
(198.625 0 0)
(198.616 0 0)
(198.609 0 0)
(198.604 0 0)
(198.6 0 0)
(198.597 0 0)
(198.594 0 0)
(198.593 0 0)
(198.592 0 0)
(198.591 0 0)
(198.59 0 0)
(198.589 0 0)
(198.589 0 0)
(198.588 0 0)
(198.588 0 0)
(198.587 0 0)
(198.586 0 0)
(198.585 0 0)
(198.585 0 0)
(198.584 0 0)
(198.584 0 0)
(198.583 0 0)
(198.583 0 0)
(198.582 0 0)
(198.581 0 0)
(198.581 0 0)
(198.58 0 0)
(198.579 0 0)
(198.579 0 0)
(198.578 0 0)
(198.578 0 0)
(198.577 0 0)
(198.577 0 0)
(198.576 0 0)
(198.576 0 0)
(198.575 0 0)
(198.575 0 0)
(198.574 0 0)
(198.574 0 0)
(198.573 0 0)
(198.573 0 0)
(198.572 0 0)
(198.572 0 0)
(198.571 0 0)
(198.571 0 0)
(198.57 0 0)
(198.57 0 0)
(198.569 0 0)
(198.569 0 0)
(198.568 0 0)
(198.568 0 0)
(198.567 0 0)
(198.567 0 0)
(198.566 0 0)
(198.566 0 0)
(198.565 0 0)
(198.565 0 0)
(198.564 0 0)
(198.564 0 0)
(198.563 0 0)
(198.563 0 0)
(198.562 0 0)
(198.562 0 0)
(198.561 0 0)
(198.561 0 0)
(198.56 0 0)
(198.56 0 0)
(198.559 0 0)
(198.559 0 0)
(198.559 0 0)
(198.558 0 0)
(198.558 0 0)
(198.557 0 0)
(198.557 0 0)
(198.557 0 0)
(198.556 0 0)
(198.556 0 0)
(198.556 0 0)
(198.556 0 0)
(198.555 0 0)
(198.555 0 0)
(198.555 0 0)
(198.555 0 0)
(198.555 0 0)
(198.554 0 0)
(198.554 0 0)
(198.554 0 0)
(198.554 0 0)
(198.554 0 0)
(198.553 0 0)
(198.553 0 0)
(198.553 0 0)
(198.553 0 0)
(198.553 0 0)
(198.553 0 0)
(198.553 0 0)
(198.552 0 0)
(198.552 0 0)
(198.552 0 0)
(198.552 0 0)
(198.552 0 0)
(198.551 0 0)
(198.551 0 0)
(198.551 0 0)
(198.551 0 0)
(198.551 0 0)
(198.55 0 0)
(198.55 0 0)
(198.55 0 0)
(198.55 0 0)
(198.549 0 0)
(198.549 0 0)
(198.549 0 0)
(198.549 0 0)
(198.548 0 0)
(198.548 0 0)
(198.548 0 0)
(198.548 0 0)
(198.548 0 0)
(198.547 0 0)
(198.547 0 0)
(198.547 0 0)
(198.547 0 0)
(198.547 0 0)
(198.546 0 0)
(198.546 0 0)
(198.546 0 0)
(198.546 0 0)
(198.546 0 0)
(198.546 0 0)
(198.545 0 0)
(198.545 0 0)
(198.545 0 0)
(198.545 0 0)
(198.545 0 0)
(198.545 0 0)
(198.545 0 0)
(198.545 0 0)
(198.544 0 0)
(198.544 0 0)
(198.544 0 0)
(198.544 0 0)
(198.544 0 0)
(198.544 0 0)
(198.543 0 0)
(198.543 0 0)
(198.543 0 0)
(198.543 0 0)
(198.543 0 0)
(198.543 0 0)
(198.542 0 0)
(198.542 0 0)
(198.542 0 0)
(198.542 0 0)
(198.542 0 0)
(198.541 0 0)
(198.541 0 0)
(198.541 0 0)
(198.541 0 0)
(198.541 0 0)
(198.541 0 0)
(198.54 0 0)
(198.54 0 0)
(198.54 0 0)
(198.54 0 0)
(198.539 0 0)
(198.539 0 0)
(198.539 0 0)
(198.539 0 0)
(198.539 0 0)
(198.538 0 0)
(198.537 0 0)
(198.537 0 0)
(198.536 0 0)
(198.535 0 0)
(198.534 0 0)
(198.534 0 0)
(198.538 0 0)
(198.545 0 0)
(198.556 0 0)
(198.578 0 0)
(198.642 0 0)
(198.782 0 0)
(198.83 0 0)
(198.717 0 0)
(198.595 0 0)
(198.505 0 0)
(198.472 0 0)
(198.487 0 0)
(198.505 0 0)
(198.503 0 0)
(198.499 0 0)
(198.518 0 0)
(198.542 0 0)
(198.538 0 0)
(198.517 0 0)
(198.521 0 0)
(198.546 0 0)
(198.551 0 0)
(198.525 0 0)
(198.512 0 0)
(198.536 0 0)
(198.559 0 0)
(198.542 0 0)
(198.513 0 0)
(198.523 0 0)
(198.554 0 0)
(198.554 0 0)
(198.522 0 0)
(198.509 0 0)
(198.534 0 0)
(198.553 0 0)
(198.531 0 0)
(198.505 0 0)
(198.519 0 0)
(198.55 0 0)
(198.543 0 0)
(198.509 0 0)
(198.508 0 0)
(198.54 0 0)
(198.552 0 0)
(198.523 0 0)
(198.501 0 0)
(198.523 0 0)
(198.552 0 0)
(198.54 0 0)
(198.507 0 0)
(198.509 0 0)
(198.541 0 0)
(198.549 0 0)
(198.519 0 0)
(198.502 0 0)
(198.527 0 0)
(198.552 0 0)
(198.533 0 0)
(198.502 0 0)
(198.512 0 0)
(198.545 0 0)
(198.544 0 0)
(198.511 0 0)
(198.502 0 0)
(198.532 0 0)
(198.552 0 0)
(198.525 0 0)
(198.497 0 0)
(198.515 0 0)
(198.549 0 0)
(198.541 0 0)
(198.506 0 0)
(198.501 0 0)
(198.533 0 0)
(198.548 0 0)
(198.521 0 0)
(198.497 0 0)
(198.518 0 0)
(198.547 0 0)
(198.534 0 0)
(198.5 0 0)
(198.504 0 0)
(198.539 0 0)
(198.545 0 0)
(198.511 0 0)
(198.493 0 0)
(198.523 0 0)
(198.549 0 0)
(198.527 0 0)
(198.493 0 0)
(198.505 0 0)
(198.541 0 0)
(198.541 0 0)
(198.505 0 0)
(198.493 0 0)
(198.524 0 0)
(198.546 0 0)
(198.52 0 0)
(198.49 0 0)
(198.507 0 0)
(198.542 0 0)
(198.534 0 0)
(198.496 0 0)
(198.493 0 0)
(198.53 0 0)
(198.544 0 0)
(198.509 0 0)
(198.484 0 0)
(198.512 0 0)
(198.545 0 0)
(198.525 0 0)
(198.485 0 0)
(198.494 0 0)
(198.535 0 0)
(198.539 0 0)
(198.498 0 0)
(198.479 0 0)
(198.512 0 0)
(198.542 0 0)
(198.518 0 0)
(198.48 0 0)
(198.49 0 0)
(198.529 0 0)
(198.531 0 0)
(198.492 0 0)
(198.476 0 0)
(198.509 0 0)
(198.534 0 0)
(198.506 0 0)
(198.471 0 0)
(198.486 0 0)
(198.525 0 0)
(198.518 0 0)
(198.476 0 0)
(198.467 0 0)
(198.504 0 0)
(198.522 0 0)
(198.487 0 0)
(198.455 0 0)
(198.479 0 0)
(198.515 0 0)
(198.497 0 0)
(198.452 0 0)
(198.453 0 0)
(198.494 0 0)
(198.501 0 0)
(198.457 0 0)
(198.43 0 0)
(198.46 0 0)
(198.491 0 0)
(198.463 0 0)
(198.417 0 0)
(198.423 0 0)
(198.462 0 0)
(198.46 0 0)
(198.412 0 0)
(198.388 0 0)
(198.418 0 0)
(198.441 0 0)
(198.405 0 0)
(198.358 0 0)
(198.366 0 0)
(198.401 0 0)
(198.386 0 0)
(198.331 0 0)
(198.309 0 0)
(198.337 0 0)
(198.349 0 0)
(198.3 0 0)
(198.251 0 0)
(198.257 0 0)
(198.282 0 0)
(198.253 0 0)
(198.19 0 0)
(198.166 0 0)
(198.184 0 0)
(198.177 0 0)
(198.116 0 0)
(198.062 0 0)
(198.058 0 0)
(198.062 0 0)
(198.014 0 0)
(197.941 0 0)
(197.906 0 0)
(197.901 0 0)
(197.869 0 0)
(197.789 0 0)
(197.721 0 0)
(197.691 0 0)
(197.664 0 0)
(197.587 0 0)
(197.489 0 0)
(197.425 0 0)
(197.384 0 0)
(197.309 0 0)
(197.182 0 0)
(197.071 0 0)
(197 0 0)
(196.92 0 0)
(196.765 0 0)
(196.587 0 0)
(196.463 0 0)
(196.368 0 0)
(196.195 0 0)
(195.939 0 0)
(195.726 0 0)
(195.582 0 0)
(195.39 0 0)
(195.034 0 0)
(194.664 0 0)
(194.412 0 0)
(194.161 0 0)
(193.688 0 0)
(193.105 0 0)
(192.639 0 0)
(192.13 0 0)
(191.259 0 0)
(189.682 0 0)
(186.781 0 0)
(180.087 0 0)
(159.254 0 0)
(101.826 0 0)
(35.3233 0 0)
(9.24381 0 0)
(2.26552 0 0)
(0.541578 0 0)
(0.12846 0 0)
(0.0304075 0 0)
(0.00719338 0 0)
(0.00170152 0 0)
(0.000402476 0 0)
(9.52012e-05 0 0)
(2.25185e-05 0 0)
(5.32634e-06 0 0)
(1.25983e-06 0 0)
(2.97984e-07 0 0)
(7.04856e-08 0 0)
(1.66772e-08 0 0)
(3.95116e-09 0 0)
(9.38602e-10 0 0)
(2.26134e-10 0 0)
(5.94929e-11 0 0)
(2.0006e-11 0 0)
(1.14566e-11 0 0)
(1.19374e-11 0 0)
(1.173e-11 0 0)
(1.29196e-11 0 0)
(1.33587e-11 0 0)
(1.58515e-11 0 0)
(1.63092e-11 0 0)
(1.61178e-11 0 0)
(1.74294e-11 0 0)
(1.8615e-11 0 0)
(2.01778e-11 0 0)
(1.96066e-11 0 0)
(2.18228e-11 0 0)
(2.08627e-11 0 0)
(2.07431e-11 0 0)
(1.97072e-11 0 0)
(1.99091e-11 0 0)
(1.91874e-11 0 0)
(2.1077e-11 0 0)
(2.20002e-11 0 0)
(2.33361e-11 0 0)
(2.47479e-11 0 0)
(2.31611e-11 0 0)
(2.50764e-11 0 0)
(2.2708e-11 0 0)
(2.08488e-11 0 0)
(2.13359e-11 0 0)
(2.05994e-11 0 0)
(2.1685e-11 0 0)
(2.09727e-11 0 0)
(2.00517e-11 0 0)
(2.00777e-11 0 0)
(2.13261e-11 0 0)
(2.1341e-11 0 0)
(2.19609e-11 0 0)
(2.1688e-11 0 0)
(2.31823e-11 0 0)
(2.38474e-11 0 0)
(2.11414e-11 0 0)
(2.24913e-11 0 0)
(2.29627e-11 0 0)
(2.45893e-11 0 0)
(2.35221e-11 0 0)
(2.17924e-11 0 0)
(1.99214e-11 0 0)
(1.84106e-11 0 0)
(1.69339e-11 0 0)
(1.73359e-11 0 0)
(1.60401e-11 0 0)
(1.78878e-11 0 0)
(1.41446e-11 0 0)
(1.69682e-11 0 0)
(1.66968e-11 0 0)
(1.75684e-11 0 0)
(1.88085e-11 0 0)
(2.08776e-11 0 0)
(1.92073e-11 0 0)
(2.0774e-11 0 0)
(2.2555e-11 0 0)
(2.16789e-11 0 0)
(2.39459e-11 0 0)
(2.50825e-11 0 0)
(2.62125e-11 0 0)
(2.73131e-11 0 0)
(2.80861e-11 0 0)
(2.77283e-11 0 0)
(2.72789e-11 0 0)
(2.44496e-11 0 0)
(2.76809e-11 0 0)
(2.83829e-11 0 0)
(2.99665e-11 0 0)
(2.6703e-11 0 0)
(2.88878e-11 0 0)
(2.75772e-11 0 0)
(3.07713e-11 0 0)
(2.86154e-11 0 0)
(3.02614e-11 0 0)
(3.06601e-11 0 0)
(3.27454e-11 0 0)
(3.27282e-11 0 0)
(3.22128e-11 0 0)
(3.15574e-11 0 0)
(3.11878e-11 0 0)
(3.15365e-11 0 0)
(3.09635e-11 0 0)
(3.16815e-11 0 0)
(3.07388e-11 0 0)
(3.10725e-11 0 0)
(3.27071e-11 0 0)
(3.07127e-11 0 0)
(3.27126e-11 0 0)
(3.11415e-11 0 0)
(3.09385e-11 0 0)
(2.67559e-11 0 0)
(2.85024e-11 0 0)
(2.76878e-11 0 0)
(2.71516e-11 0 0)
(2.79061e-11 0 0)
(2.64042e-11 0 0)
(2.60987e-11 0 0)
(2.68319e-11 0 0)
(2.61967e-11 0 0)
(2.62721e-11 0 0)
(2.82536e-11 0 0)
(2.81709e-11 0 0)
(2.72804e-11 0 0)
(2.43409e-11 0 0)
(2.55309e-11 0 0)
(2.35727e-11 0 0)
(2.19621e-11 0 0)
(2.0578e-11 0 0)
(2.05296e-11 0 0)
(2.05992e-11 0 0)
(1.97705e-11 0 0)
(1.73644e-11 0 0)
(2.09122e-11 0 0)
(1.96694e-11 0 0)
(1.97886e-11 0 0)
(1.71301e-11 0 0)
(1.91414e-11 0 0)
(1.96001e-11 0 0)
(1.94167e-11 0 0)
(1.84961e-11 0 0)
(1.97297e-11 0 0)
(2.09731e-11 0 0)
(2.12e-11 0 0)
(2.06273e-11 0 0)
(1.99843e-11 0 0)
(2.2349e-11 0 0)
(2.06887e-11 0 0)
(2.01644e-11 0 0)
(1.93904e-11 0 0)
(2.17092e-11 0 0)
(2.11032e-11 0 0)
(2.26767e-11 0 0)
(2.12567e-11 0 0)
(2.25229e-11 0 0)
(2.12447e-11 0 0)
(2.5606e-11 0 0)
(2.3684e-11 0 0)
(2.72429e-11 0 0)
(2.49508e-11 0 0)
(2.77585e-11 0 0)
(2.58053e-11 0 0)
)
;

boundaryField
{
    sides
    {
        type            zeroGradient;
    }
    empty
    {
        type            empty;
    }
}


// ************************************************************************* //
