-4.995 	400 	7.86236e-12 	100000
-4.985 	400 	6.04924e-12 	100000
-4.975 	400 	1.00567e-11 	100000
-4.965 	400 	8.75205e-12 	100000
-4.955 	400 	8.2763e-12 	100000
-4.945 	400 	9.14679e-12 	100000
-4.935 	400 	8.3061e-12 	100000
-4.925 	400 	1.09065e-11 	100000
-4.915 	400 	9.47521e-12 	100000
-4.905 	400 	9.78618e-12 	100000
-4.895 	400 	8.6061e-12 	100000
-4.885 	400 	1.06039e-11 	100000
-4.875 	400 	1.02521e-11 	100000
-4.865 	400 	1.03685e-11 	100000
-4.855 	400 	7.67677e-12 	100000
-4.845 	400 	5.68386e-12 	100000
-4.835 	400 	2.5605e-12 	100000
-4.825 	400 	3.82428e-12 	100000
-4.815 	400 	9.89052e-13 	100000
-4.805 	400 	2.4654e-12 	100000
-4.795 	400 	7.0639e-13 	100000
-4.785 	400 	3.77873e-12 	100000
-4.775 	400 	2.00324e-12 	100000
-4.765 	400 	1.55361e-12 	100000
-4.755 	400 	1.87465e-12 	100000
-4.745 	400 	1.79264e-12 	100000
-4.735 	400 	1.67749e-12 	100000
-4.725 	400 	2.42826e-12 	100000
-4.715 	400 	1.21858e-13 	100000
-4.705 	400 	2.01877e-12 	100000
-4.695 	400 	3.86766e-13 	100000
-4.685 	400 	3.61187e-12 	100000
-4.675 	400 	4.84097e-12 	100000
-4.665 	400 	5.14346e-12 	100000
-4.655 	400 	4.69147e-12 	100000
-4.645 	400 	2.18424e-13 	100000
-4.635 	400 	4.39729e-12 	100000
-4.625 	400 	5.11476e-12 	100000
-4.615 	400 	7.60686e-12 	100000
-4.605 	400 	4.26535e-12 	100000
-4.595 	400 	4.22401e-12 	100000
-4.585 	400 	2.59215e-12 	100000
-4.575 	400 	2.34916e-13 	100000
-4.565 	400 	2.90746e-13 	100000
-4.555 	400 	2.17112e-12 	100000
-4.545 	400 	7.88146e-13 	100000
-4.535 	400 	6.34838e-13 	100000
-4.525 	400 	1.13827e-12 	100000
-4.515 	400 	1.1337e-12 	100000
-4.505 	400 	1.29183e-12 	100000
-4.495 	400 	4.95602e-12 	100000
-4.485 	400 	1.76064e-12 	100000
-4.475 	400 	2.49474e-12 	100000
-4.465 	400 	1.75035e-12 	100000
-4.455 	400 	3.98524e-13 	100000
-4.445 	400 	2.11647e-12 	100000
-4.435 	400 	9.24485e-13 	100000
-4.425 	400 	2.70977e-12 	100000
-4.415 	400 	2.32598e-13 	100000
-4.405 	400 	2.33001e-12 	100000
-4.395 	400 	4.26966e-12 	100000
-4.385 	400 	3.76705e-13 	100000
-4.375 	400 	6.80182e-13 	100000
-4.365 	400 	2.90459e-12 	100000
-4.355 	400 	9.32355e-13 	100000
-4.345 	400 	5.59136e-13 	100000
-4.335 	400 	7.81976e-13 	100000
-4.325 	400 	3.43588e-12 	100000
-4.315 	400 	1.96687e-12 	100000
-4.305 	400 	4.37815e-12 	100000
-4.295 	400 	8.26186e-13 	100000
-4.285 	400 	2.53979e-12 	100000
-4.275 	400 	3.34392e-12 	100000
-4.265 	400 	4.39787e-13 	100000
-4.255 	400 	1.18085e-12 	100000
-4.245 	400 	7.10116e-13 	100000
-4.235 	400 	3.02508e-12 	100000
-4.225 	400 	1.19182e-12 	100000
-4.215 	400 	1.05497e-12 	100000
-4.205 	400 	2.32522e-12 	100000
-4.195 	400 	8.68522e-13 	100000
-4.185 	400 	1.08287e-12 	100000
-4.175 	400 	1.61666e-12 	100000
-4.165 	400 	1.25037e-12 	100000
-4.155 	400 	1.35743e-12 	100000
-4.145 	400 	7.47729e-13 	100000
-4.135 	400 	1.92179e-13 	100000
-4.125 	400 	2.57044e-12 	100000
-4.115 	400 	2.39526e-12 	100000
-4.105 	400 	3.96634e-12 	100000
-4.095 	400 	1.92689e-12 	100000
-4.085 	400 	4.10672e-12 	100000
-4.075 	400 	5.48154e-12 	100000
-4.065 	400 	5.64193e-12 	100000
-4.055 	400 	3.33242e-12 	100000
-4.045 	400 	7.52559e-12 	100000
-4.035 	400 	6.57935e-12 	100000
-4.025 	400 	7.17439e-12 	100000
-4.015 	400 	6.99654e-12 	100000
-4.005 	400 	8.18896e-12 	100000
-3.995 	400 	8.68255e-12 	100000
-3.985 	400 	6.3019e-12 	100000
-3.975 	400 	6.50367e-12 	100000
-3.965 	400 	3.95446e-12 	100000
-3.955 	400 	4.6163e-12 	100000
-3.945 	400 	3.29133e-12 	100000
-3.935 	400 	1.28776e-12 	100000
-3.925 	400 	4.01887e-12 	100000
-3.915 	400 	4.62744e-12 	100000
-3.905 	400 	2.25528e-12 	100000
-3.895 	400 	6.17599e-12 	100000
-3.885 	400 	4.24968e-12 	100000
-3.875 	400 	4.68968e-12 	100000
-3.865 	400 	6.08166e-12 	100000
-3.855 	400 	3.40317e-12 	100000
-3.845 	400 	4.61836e-12 	100000
-3.835 	400 	1.78544e-12 	100000
-3.825 	400 	4.66216e-12 	100000
-3.815 	400 	1.70004e-12 	100000
-3.805 	400 	2.11284e-12 	100000
-3.795 	400 	2.37821e-13 	100000
-3.785 	400 	2.29059e-13 	100000
-3.775 	400 	6.83358e-13 	100000
-3.765 	400 	1.09952e-12 	100000
-3.755 	400 	4.55824e-13 	100000
-3.745 	400 	3.36439e-12 	100000
-3.735 	400 	1.25561e-13 	100000
-3.725 	400 	1.13661e-12 	100000
-3.715 	400 	3.36486e-12 	100000
-3.705 	400 	1.48331e-12 	100000
-3.695 	400 	1.67553e-12 	100000
-3.685 	400 	2.03111e-12 	100000
-3.675 	400 	2.81495e-12 	100000
-3.665 	400 	3.25099e-13 	100000
-3.655 	400 	2.06113e-12 	100000
-3.645 	400 	3.53324e-12 	100000
-3.635 	400 	4.78429e-12 	100000
-3.625 	400 	3.77319e-12 	100000
-3.615 	400 	4.16618e-12 	100000
-3.605 	400 	5.361e-12 	100000
-3.595 	400 	5.34631e-12 	100000
-3.585 	400 	3.60976e-12 	100000
-3.575 	400 	5.22282e-12 	100000
-3.565 	400 	2.19076e-12 	100000
-3.555 	400 	3.38546e-12 	100000
-3.545 	400 	1.77515e-12 	100000
-3.535 	400 	1.22425e-12 	100000
-3.525 	400 	2.27375e-12 	100000
-3.515 	400 	2.44742e-12 	100000
-3.505 	400 	3.22828e-12 	100000
-3.495 	400 	2.79993e-12 	100000
-3.485 	400 	4.87621e-12 	100000
-3.475 	400 	1.00731e-12 	100000
-3.465 	400 	5.78186e-12 	100000
-3.455 	400 	4.44833e-12 	100000
-3.445 	400 	3.86069e-12 	100000
-3.435 	400 	3.40467e-12 	100000
-3.425 	400 	3.42149e-12 	100000
-3.415 	400 	2.26372e-12 	100000
-3.405 	400 	1.88059e-13 	100000
-3.395 	400 	2.63238e-12 	100000
-3.385 	400 	2.88856e-12 	100000
-3.375 	400 	1.15748e-12 	100000
-3.365 	400 	1.82172e-12 	100000
-3.355 	400 	5.99079e-13 	100000
-3.345 	400 	1.97664e-12 	100000
-3.335 	400 	5.01655e-12 	100000
-3.325 	400 	6.91116e-12 	100000
-3.315 	400 	7.05539e-12 	100000
-3.305 	400 	6.46729e-12 	100000
-3.295 	400 	3.83669e-12 	100000
-3.285 	400 	4.50979e-12 	100000
-3.275 	400 	6.69318e-12 	100000
-3.265 	400 	2.62417e-12 	100000
-3.255 	400 	1.75214e-12 	100000
-3.245 	400 	2.3229e-13 	100000
-3.235 	400 	1.9615e-13 	100000
-3.225 	400 	8.58028e-13 	100000
-3.215 	400 	1.96239e-12 	100000
-3.205 	400 	2.96362e-12 	100000
-3.195 	400 	5.03223e-13 	100000
-3.185 	400 	1.25222e-12 	100000
-3.175 	400 	2.64627e-12 	100000
-3.165 	400 	1.52548e-12 	100000
-3.155 	400 	2.84186e-12 	100000
-3.145 	400 	6.24057e-12 	100000
-3.135 	400 	3.52756e-12 	100000
-3.125 	400 	4.13035e-12 	100000
-3.115 	400 	3.25858e-13 	100000
-3.105 	400 	3.5834e-12 	100000
-3.095 	400 	3.02747e-12 	100000
-3.085 	400 	1.41074e-13 	100000
-3.075 	400 	2.54456e-12 	100000
-3.065 	400 	3.35666e-13 	100000
-3.055 	400 	4.34042e-12 	100000
-3.045 	400 	3.348e-12 	100000
-3.035 	400 	6.40944e-12 	100000
-3.025 	400 	3.09218e-12 	100000
-3.015 	400 	2.60998e-12 	100000
-3.005 	400 	1.31436e-13 	100000
-2.995 	400 	2.02863e-12 	100000
-2.985 	400 	6.65741e-13 	100000
-2.975 	400 	4.30013e-12 	100000
-2.965 	400 	1.46816e-12 	100000
-2.955 	400 	2.13565e-12 	100000
-2.945 	400 	1.94709e-12 	100000
-2.935 	400 	4.31764e-13 	100000
-2.925 	400 	2.09512e-12 	100000
-2.915 	400 	2.05159e-12 	100000
-2.905 	400 	5.4893e-12 	100000
-2.895 	400 	3.59139e-12 	100000
-2.885 	400 	4.65269e-12 	100000
-2.875 	400 	4.80261e-12 	100000
-2.865 	400 	1.70306e-12 	100000
-2.855 	400 	2.32836e-12 	100000
-2.845 	400 	4.78697e-12 	100000
-2.835 	400 	1.74219e-12 	100000
-2.825 	400 	4.31677e-12 	100000
-2.815 	400 	4.1279e-12 	100000
-2.805 	400 	3.29322e-12 	100000
-2.795 	400 	3.33022e-12 	100000
-2.785 	400 	3.79092e-12 	100000
-2.775 	400 	6.83811e-13 	100000
-2.765 	400 	4.36502e-13 	100000
-2.755 	400 	7.13734e-14 	100000
-2.745 	400 	2.85282e-12 	100000
-2.735 	400 	6.62096e-13 	100000
-2.725 	400 	1.51138e-12 	100000
-2.715 	400 	7.8533e-13 	100000
-2.705 	400 	4.6551e-13 	100000
-2.695 	400 	5.43944e-13 	100000
-2.685 	400 	8.69182e-13 	100000
-2.675 	400 	1.25487e-12 	100000
-2.665 	400 	3.3884e-12 	100000
-2.655 	400 	2.57491e-12 	100000
-2.645 	400 	6.50132e-13 	100000
-2.635 	400 	6.63955e-12 	100000
-2.625 	400 	2.50563e-12 	100000
-2.615 	400 	3.73415e-12 	100000
-2.605 	400 	1.06197e-12 	100000
-2.595 	400 	8.09053e-13 	100000
-2.585 	400 	1.17391e-12 	100000
-2.575 	400 	1.32124e-12 	100000
-2.565 	400 	3.79794e-12 	100000
-2.555 	400 	3.17337e-12 	100000
-2.545 	400 	3.16157e-12 	100000
-2.535 	400 	4.29512e-13 	100000
-2.525 	400 	3.23331e-12 	100000
-2.515 	400 	3.11882e-12 	100000
-2.505 	400 	4.8572e-12 	100000
-2.495 	400 	3.70299e-12 	100000
-2.485 	400 	3.0269e-13 	100000
-2.475 	400 	2.21247e-13 	100000
-2.465 	400 	2.6926e-12 	100000
-2.455 	400 	2.44984e-12 	100000
-2.445 	400 	2.40823e-12 	100000
-2.435 	400 	3.52352e-12 	100000
-2.425 	400 	4.20468e-12 	100000
-2.415 	400 	3.67439e-12 	100000
-2.405 	400 	3.93009e-12 	100000
-2.395 	400 	4.35388e-13 	100000
-2.385 	400 	6.00422e-13 	100000
-2.375 	400 	3.18602e-12 	100000
-2.365 	400 	5.13807e-13 	100000
-2.355 	400 	1.4587e-12 	100000
-2.345 	400 	1.70148e-12 	100000
-2.335 	400 	1.94946e-12 	100000
-2.325 	400 	2.06778e-12 	100000
-2.315 	400 	1.1876e-12 	100000
-2.305 	400 	1.54741e-12 	100000
-2.295 	400 	9.89748e-13 	100000
-2.285 	400 	3.72759e-12 	100000
-2.275 	400 	4.36895e-12 	100000
-2.265 	400 	2.45843e-12 	100000
-2.255 	400 	1.99829e-12 	100000
-2.245 	400 	2.67121e-12 	100000
-2.235 	400 	2.35378e-12 	100000
-2.225 	400 	1.02649e-12 	100000
-2.215 	400 	2.94165e-12 	100000
-2.205 	400 	6.26937e-13 	100000
-2.195 	400 	3.40898e-12 	100000
-2.185 	400 	2.06173e-12 	100000
-2.175 	400 	1.77324e-13 	100000
-2.165 	400 	1.21437e-12 	100000
-2.155 	400 	3.04621e-12 	100000
-2.145 	400 	5.49244e-12 	100000
-2.135 	400 	1.86171e-12 	100000
-2.125 	400 	2.68693e-12 	100000
-2.115 	400 	1.5487e-12 	100000
-2.105 	400 	1.24427e-12 	100000
-2.095 	400 	1.55236e-12 	100000
-2.085 	400 	2.20218e-12 	100000
-2.075 	400 	2.8803e-12 	100000
-2.065 	400 	1.27269e-12 	100000
-2.055 	400 	1.82842e-12 	100000
-2.045 	400 	2.69053e-12 	100000
-2.035 	400 	8.46474e-13 	100000
-2.025 	400 	4.02685e-12 	100000
-2.015 	400 	1.26283e-12 	100000
-2.005 	400 	6.77973e-13 	100000
-1.995 	400 	1.62079e-12 	100000
-1.985 	400 	1.04395e-12 	100000
-1.975 	400 	2.39292e-12 	100000
-1.965 	400 	2.14206e-12 	100000
-1.955 	400 	1.6277e-12 	100000
-1.945 	400 	1.38477e-12 	100000
-1.935 	400 	1.26081e-12 	100000
-1.925 	400 	2.50992e-12 	100000
-1.915 	400 	1.45605e-13 	100000
-1.905 	400 	1.28605e-12 	100000
-1.895 	400 	1.78871e-13 	100000
-1.885 	400 	1.18295e-12 	100000
-1.875 	400 	1.91634e-12 	100000
-1.865 	400 	1.08013e-12 	100000
-1.855 	400 	1.58501e-12 	100000
-1.845 	400 	3.96393e-13 	100000
-1.835 	400 	2.4879e-17 	100000
-1.825 	400 	4.64473e-18 	100000
-1.815 	400 	1.72669e-17 	100000
-1.805 	400 	2.06901e-16 	100000
-1.795 	400 	8.78711e-13 	100000
-1.785 	400 	2.88521e-21 	100000
-1.775 	400 	8.78704e-13 	100000
-1.765 	400 	1.27422e-16 	100000
-1.755 	400 	5.57845e-13 	100000
-1.745 	400 	3.79828e-23 	100000
-1.735 	400 	5.57843e-13 	100000
-1.725 	400 	1.10031e-16 	100000
-1.715 	400 	2.66618e-13 	100000
-1.705 	400 	1.48209e-12 	100000
-1.695 	400 	1.03897e-13 	100000
-1.685 	400 	1.59905e-12 	100000
-1.675 	400 	2.53505e-12 	100000
-1.665 	400 	3.61804e-13 	100000
-1.655 	400 	1.26093e-12 	100000
-1.645 	400 	1.78871e-13 	100000
-1.635 	400 	1.18295e-12 	100000
-1.625 	400 	1.91634e-12 	100000
-1.615 	400 	1.08013e-12 	100000
-1.605 	400 	1.58501e-12 	100000
-1.595 	400 	3.96393e-13 	100000
-1.585 	400 	2.9872e-17 	100000
-1.575 	400 	6.38701e-17 	100000
-1.565 	400 	2.0379e-12 	100000
-1.555 	400 	3.1618e-13 	100000
-1.545 	400 	1.54499e-13 	100000
-1.535 	400 	1.69316e-12 	100000
-1.525 	400 	2.81495e-14 	100000
-1.515 	400 	2.46832e-12 	100000
-1.505 	400 	2.40078e-12 	100000
-1.495 	400 	3.76396e-13 	100000
-1.485 	400 	1.17384e-12 	100000
-1.475 	400 	1.21541e-12 	100000
-1.465 	400 	5.099e-13 	100000
-1.455 	400 	1.26714e-12 	100000
-1.445 	400 	2.09982e-12 	100000
-1.435 	400 	8.101e-13 	100000
-1.425 	400 	2.81093e-12 	100000
-1.415 	400 	1.01179e-12 	100000
-1.405 	400 	1.87887e-12 	100000
-1.395 	400 	1.57754e-12 	100000
-1.385 	400 	1.94895e-12 	100000
-1.375 	400 	8.58535e-13 	100000
-1.365 	400 	2.6975e-12 	100000
-1.355 	400 	3.21388e-13 	100000
-1.345 	400 	1.78887e-12 	100000
-1.335 	400 	4.46242e-12 	100000
-1.325 	400 	1.97598e-12 	100000
-1.315 	400 	1.47208e-12 	100000
-1.305 	400 	4.38454e-13 	100000
-1.295 	400 	2.17219e-12 	100000
-1.285 	400 	1.15231e-12 	100000
-1.275 	400 	9.9761e-13 	100000
-1.265 	400 	1.66475e-12 	100000
-1.255 	400 	3.41457e-12 	100000
-1.245 	400 	2.03469e-12 	100000
-1.235 	400 	1.16888e-12 	100000
-1.225 	400 	9.50988e-13 	100000
-1.215 	400 	5.10285e-13 	100000
-1.205 	400 	2.42477e-18 	100000
-1.195 	400 	8.88755e-13 	100000
-1.185 	400 	2.0877e-16 	100000
-1.175 	400 	1.54946e-17 	100000
-1.165 	400 	2.81393e-17 	100000
-1.155 	400 	7.06709e-13 	100000
-1.145 	400 	9.07651e-13 	100000
-1.135 	400 	6.26417e-13 	100000
-1.125 	400 	1.88199e-12 	100000
-1.115 	400 	1.0298e-12 	100000
-1.105 	400 	1.38856e-12 	100000
-1.095 	400 	6.83481e-13 	100000
-1.085 	400 	1.58851e-12 	100000
-1.075 	400 	6.25087e-13 	100000
-1.065 	400 	8.59059e-13 	100000
-1.055 	400 	6.1146e-13 	100000
-1.045 	400 	8.455e-13 	100000
-1.035 	400 	5.38474e-14 	100000
-1.025 	400 	8.78652e-13 	100000
-1.015 	400 	1.11557e-12 	100000
-1.005 	400 	3.58862e-12 	100000
-0.995 	400 	1.34144e-12 	100000
-0.985 	400 	1.52894e-12 	100000
-0.975 	400 	3.31588e-13 	100000
-0.965 	400 	1.6776e-15 	100000
-0.955 	400 	4.8616e-20 	100000
-0.945 	400 	2.0097e-14 	100000
-0.935 	400 	6.06219e-13 	100000
-0.925 	400 	2.43661e-12 	100000
-0.915 	400 	1.0006e-11 	100000
-0.905 	400 	3.36635e-11 	100000
-0.895 	400 	1.07255e-10 	100000
-0.885 	400 	3.30883e-10 	100000
-0.875 	400 	9.95765e-10 	100000
-0.865 	400 	2.93605e-09 	100000
-0.855 	400 	8.50899e-09 	100000
-0.845 	400 	2.42601e-08 	100000
-0.835 	400 	6.80266e-08 	100000
-0.825 	400 	1.87569e-07 	100000
-0.815 	400 	5.08392e-07 	100000
-0.805 	400 	1.35403e-06 	100000
-0.795 	400 	3.54208e-06 	100000
-0.785 	400 	9.09684e-06 	100000
-0.775 	400 	2.2925e-05 	100000
-0.765 	400 	5.66608e-05 	100000
-0.755 	400 	0.000137266 	100000
-0.745 	400 	0.000325751 	99999.9
-0.735 	400 	0.00075676 	99999.7
-0.725 	399.999 	0.00171976 	99999.4
-0.715 	399.999 	0.0038201 	99998.7
-0.705 	399.997 	0.00828703 	99997.2
-0.695 	399.993 	0.0175399 	99994
-0.685 	399.986 	0.0361827 	99987.6
-0.675 	399.972 	0.0726623 	99975.2
-0.665 	399.944 	0.141864 	99951.4
-0.655 	399.894 	0.268867 	99907.8
-0.645 	399.806 	0.493809 	99830.3
-0.635 	399.654 	0.877177 	99698.1
-0.625 	399.406 	1.50357 	99481.8
-0.615 	399.017 	2.47987 	99143.9
-0.605 	398.441 	3.9186 	98644.4
-0.595 	397.645 	5.88863 	97956.8
-0.585 	396.641 	8.37802 	97094.8
-0.575 	395.453 	11.3385 	96082.2
-0.565 	394.099 	14.7267 	94936
-0.555 	392.598 	18.492 	93677.4
-0.545 	390.976 	22.5751 	92330.3
-0.535 	389.256 	26.9169 	90917.5
-0.525 	387.461 	31.4646 	89459
-0.515 	385.608 	36.1739 	87970.9
-0.505 	383.711 	41.0098 	86466
-0.495 	381.781 	45.9448 	84953.9
-0.485 	379.827 	50.9576 	83442
-0.475 	377.855 	56.0314 	81936
-0.465 	375.871 	61.1527 	80440
-0.455 	373.879 	66.3108 	78957.6
-0.445 	371.882 	71.4962 	77491.5
-0.435 	369.884 	76.7011 	76043.8
-0.425 	367.887 	81.9183 	74616.4
-0.415 	365.894 	87.1412 	73210.9
-0.405 	363.907 	92.3636 	71828.5
-0.395 	361.928 	97.5795 	70470.5
-0.385 	359.96 	102.783 	69138.1
-0.375 	358.006 	107.967 	67832.3
-0.365 	356.066 	113.126 	66554.1
-0.355 	354.144 	118.253 	65304.6
-0.345 	352.243 	123.341 	64084.8
-0.335 	350.365 	128.381 	62896
-0.325 	348.514 	133.364 	61739.2
-0.315 	346.693 	138.282 	60615.9
-0.305 	344.905 	143.122 	59527.5
-0.295 	343.16 	147.873 	58475.6
-0.285 	341.444 	152.522 	57461.9
-0.275 	339.815 	157.055 	56488.7
-0.265 	338.14 	161.45 	55557.2
-0.255 	336.751 	165.701 	54671.8
-0.245 	334.993 	169.771 	53831
-0.235 	334.022 	173.66 	53043.8
-0.225 	332.186 	177.325 	52305.5
-0.215 	331.398 	180.756 	51626.3
-0.205 	330.089 	183.936 	51002.5
-0.195 	328.89 	186.819 	50439
-0.185 	328.368 	189.41 	49940.4
-0.175 	327.276 	191.685 	49506.9
-0.165 	326.554 	193.624 	49136.7
-0.155 	326.284 	195.227 	48830.6
-0.145 	325.672 	196.508 	48591.2
-0.135 	325.23 	197.478 	48405.7
-0.125 	325.175 	198.154 	48275.3
-0.115 	325.06 	198.594 	48188.3
-0.105 	324.86 	198.855 	48140.3
-0.095 	324.847 	198.978 	48117.1
-0.085 	324.897 	199.008 	48110
-0.075 	324.924 	199.002 	48110.3
-0.065 	324.915 	198.999 	48111.2
-0.055 	324.915 	198.988 	48113.8
-0.045 	324.946 	198.955 	48119.3
-0.035 	325.008 	198.889 	48128
-0.025 	325.05 	198.802 	48142.8
-0.015 	325.065 	198.725 	48156.2
-0.005 	325.106 	198.671 	48167.9
0.005 	325.163 	198.631 	48174.9
0.015 	325.185 	198.604 	48179.7
0.025 	325.193 	198.592 	48182.6
0.035 	325.218 	198.587 	48183.6
0.045 	325.263 	198.58 	48183.6
0.055 	325.286 	198.576 	48183.5
0.065 	325.299 	198.574 	48183.3
0.075 	325.332 	198.573 	48182.7
0.085 	325.371 	198.571 	48182.3
0.095 	325.395 	198.571 	48183.3
0.105 	325.435 	198.571 	48185.2
0.115 	325.501 	198.571 	48185.8
0.125 	325.565 	198.569 	48186
0.135 	325.602 	198.567 	48186.2
0.145 	325.624 	198.564 	48186.4
0.155 	325.67 	198.563 	48186.9
0.165 	325.821 	198.563 	48186.8
0.175 	326.02 	198.56 	48186.8
0.185 	326.124 	198.556 	48186.6
0.195 	326.132 	198.55 	48186.6
0.205 	325.988 	198.544 	48187.1
0.215 	325.542 	198.554 	48190.3
0.225 	325.268 	198.585 	48188.6
0.235 	325.309 	198.669 	48186.9
0.245 	327.127 	198.877 	48195.5
0.255 	338.165 	199.086 	48220
0.265 	368.47 	198.976 	48160.2
0.275 	402.227 	198.676 	48166.8
0.285 	431.176 	198.524 	48195.8
0.295 	453.267 	198.469 	48198.4
0.305 	468.447 	198.434 	48186.7
0.315 	477.916 	198.416 	48179.2
0.325 	483.257 	198.44 	48190.8
0.335 	485.9 	198.474 	48202.1
0.345 	486.96 	198.462 	48194.9
0.355 	487.209 	198.421 	48175.8
0.365 	487.204 	198.41 	48177
0.375 	487.13 	198.436 	48194.3
0.385 	486.992 	198.443 	48198.1
0.395 	486.852 	198.395 	48177.3
0.405 	486.785 	198.348 	48168
0.415 	486.802 	198.355 	48181.7
0.425 	486.838 	198.374 	48195
0.435 	486.8 	198.334 	48182.3
0.445 	486.715 	198.261 	48160.1
0.455 	486.7 	198.228 	48159.8
0.465 	486.747 	198.237 	48177.7
0.475 	486.761 	198.222 	48181.7
0.485 	486.677 	198.144 	48155.3
0.495 	486.633 	198.063 	48142.9
0.505 	486.637 	198.03 	48146
0.515 	486.681 	198.015 	48161.2
0.525 	486.658 	197.946 	48151.2
0.535 	486.566 	197.828 	48122.2
0.545 	486.544 	197.733 	48115.4
0.555 	486.544 	197.677 	48119.8
0.565 	486.567 	197.612 	48127.3
0.575 	486.481 	197.468 	48092.3
0.585 	486.387 	197.293 	48064.2
0.595 	486.347 	197.158 	48056.1
0.605 	486.356 	197.051 	48059.3
0.615 	486.374 	196.89 	48054.1
0.625 	486.138 	196.608 	47983.6
0.635 	486.033 	196.321 	47956
0.645 	486.033 	196.108 	47948.2
0.655 	486.09 	195.89 	47960.6
0.665 	485.914 	195.49 	47904.6
0.675 	485.538 	194.949 	47789.2
0.685 	485.465 	194.515 	47748.6
0.695 	485.376 	194.114 	47724.7
0.705 	485.314 	193.477 	47723.2
0.715 	484.822 	192.289 	47524.3
0.725 	483.646 	190.088 	47144.2
0.735 	481.785 	185.639 	46602.9
0.745 	478.147 	174.197 	45277.7
0.755 	466.999 	134.72 	40841.6
0.765 	423.224 	63.1879 	30106.9
0.775 	406.658 	17.5443 	26454.2
0.785 	401.648 	4.40445 	25359.7
0.795 	400.393 	1.05351 	25085.7
0.805 	400.093 	0.248653 	25020.2
0.815 	400.022 	0.0584685 	25004.7
0.825 	400.005 	0.0137294 	25001.1
0.835 	400.001 	0.0032224 	25000.3
0.845 	400 	0.00075614 	25000.1
0.855 	400 	0.000177398 	25000
0.865 	400 	4.16115e-05 	25000
0.875 	400 	9.75856e-06 	25000
0.885 	400 	2.28801e-06 	25000
0.895 	400 	5.36321e-07 	25000
0.905 	400 	1.25682e-07 	25000
0.915 	400 	2.94447e-08 	25000
0.925 	400 	6.89662e-09 	25000
0.935 	400 	1.61425e-09 	25000
0.945 	400 	3.77034e-10 	25000
0.955 	400 	8.73185e-11 	25000
0.965 	400 	1.98971e-11 	25000
0.975 	400 	3.98556e-12 	25000
0.985 	400 	5.32847e-13 	25000
0.995 	400 	3.25337e-12 	25000
1.005 	400 	3.38071e-12 	25000
1.015 	400 	1.33125e-12 	25000
1.025 	400 	3.58507e-13 	25000
1.035 	400 	8.74087e-13 	25000
1.045 	400 	1.11996e-12 	25000
1.055 	400 	1.61011e-13 	25000
1.065 	400 	6.08654e-13 	25000
1.075 	400 	2.52768e-13 	25000
1.085 	400 	3.55502e-13 	25000
1.095 	400 	2.68177e-12 	25000
1.105 	400 	1.2456e-12 	25000
1.115 	400 	8.53076e-13 	25000
1.125 	400 	5.75395e-13 	25000
1.135 	400 	1.00677e-13 	25000
1.145 	400 	8.57385e-13 	25000
1.155 	400 	1.9693e-12 	25000
1.165 	400 	2.87684e-12 	25000
1.175 	400 	1.93055e-12 	25000
1.185 	400 	8.12145e-13 	25000
1.195 	400 	8.3026e-13 	25000
1.205 	400 	5.2032e-13 	25000
1.215 	400 	1.40963e-12 	25000
1.225 	400 	2.86943e-12 	25000
1.235 	400 	1.51888e-12 	25000
1.245 	400 	1.47556e-12 	25000
1.255 	400 	2.29357e-12 	25000
1.265 	400 	6.95271e-13 	25000
1.275 	400 	6.08993e-13 	25000
1.285 	400 	8.50775e-13 	25000
1.295 	400 	1.20167e-12 	25000
1.305 	400 	1.52341e-13 	25000
1.315 	400 	1.25814e-12 	25000
1.325 	400 	6.10751e-13 	25000
1.335 	400 	2.3923e-12 	25000
1.345 	400 	3.1018e-12 	25000
1.355 	400 	1.54601e-12 	25000
1.365 	400 	9.67601e-13 	25000
1.375 	400 	7.64829e-13 	25000
1.385 	400 	1.06534e-12 	25000
1.395 	400 	6.48328e-14 	25000
1.405 	400 	2.28385e-12 	25000
1.415 	400 	2.83095e-12 	25000
1.425 	400 	8.4002e-13 	25000
1.435 	400 	5.76377e-13 	25000
1.445 	400 	1.65327e-12 	25000
1.455 	400 	3.31152e-13 	25000
1.465 	400 	8.40876e-13 	25000
1.475 	400 	1.85986e-13 	25000
1.485 	400 	5.87291e-13 	25000
1.495 	400 	9.16347e-13 	25000
1.505 	400 	4.03977e-12 	25000
1.515 	400 	9.96189e-13 	25000
1.525 	400 	2.11349e-12 	25000
1.535 	400 	3.48775e-13 	25000
1.545 	400 	5.4904e-13 	25000
1.555 	400 	1.3049e-12 	25000
1.565 	400 	3.62228e-12 	25000
1.575 	400 	1.54251e-13 	25000
1.585 	400 	4.16713e-13 	25000
1.595 	400 	1.13448e-13 	25000
1.605 	400 	6.45464e-13 	25000
1.615 	400 	1.67997e-13 	25000
1.625 	400 	1.68552e-12 	25000
1.635 	400 	2.14048e-12 	25000
1.645 	400 	1.90946e-12 	25000
1.655 	400 	1.72996e-12 	25000
1.665 	400 	1.09846e-12 	25000
1.675 	400 	5.9257e-13 	25000
1.685 	400 	2.4773e-12 	25000
1.695 	400 	2.10091e-12 	25000
1.705 	400 	1.45654e-12 	25000
1.715 	400 	2.18889e-12 	25000
1.725 	400 	3.15981e-12 	25000
1.735 	400 	1.79758e-12 	25000
1.745 	400 	3.40601e-13 	25000
1.755 	400 	4.58049e-13 	25000
1.765 	400 	1.26279e-12 	25000
1.775 	400 	4.33673e-14 	25000
1.785 	400 	6.06535e-13 	25000
1.795 	400 	7.57391e-13 	25000
1.805 	400 	1.71497e-12 	25000
1.815 	400 	1.61127e-12 	25000
1.825 	400 	1.86037e-12 	25000
1.835 	400 	1.82013e-12 	25000
1.845 	400 	9.07953e-13 	25000
1.855 	400 	3.0075e-13 	25000
1.865 	400 	1.55565e-12 	25000
1.875 	400 	5.69153e-13 	25000
1.885 	400 	1.49364e-12 	25000
1.895 	400 	1.14061e-13 	25000
1.905 	400 	2.15496e-12 	25000
1.915 	400 	8.54349e-14 	25000
1.925 	400 	1.40277e-12 	25000
1.935 	400 	9.52183e-13 	25000
1.945 	400 	2.14685e-12 	25000
1.955 	400 	1.03844e-12 	25000
1.965 	400 	2.03323e-12 	25000
1.975 	400 	9.43029e-13 	25000
1.985 	400 	7.83112e-13 	25000
1.995 	400 	2.34594e-12 	25000
2.005 	400 	5.33507e-13 	25000
2.015 	400 	2.6875e-14 	25000
2.025 	400 	1.00243e-12 	25000
2.035 	400 	2.19859e-13 	25000
2.045 	400 	1.21174e-13 	25000
2.055 	400 	2.94035e-12 	25000
2.065 	400 	2.86988e-12 	25000
2.075 	400 	1.55482e-12 	25000
2.085 	400 	2.82834e-12 	25000
2.095 	400 	1.74624e-12 	25000
2.105 	400 	7.12748e-13 	25000
2.115 	400 	1.47397e-12 	25000
2.125 	400 	1.79499e-12 	25000
2.135 	400 	4.27174e-13 	25000
2.145 	400 	6.86734e-13 	25000
2.155 	400 	2.14961e-12 	25000
2.165 	400 	5.63336e-13 	25000
2.175 	400 	1.34324e-13 	25000
2.185 	400 	3.81471e-12 	25000
2.195 	400 	1.17153e-12 	25000
2.205 	400 	1.78726e-12 	25000
2.215 	400 	1.41453e-12 	25000
2.225 	400 	2.19904e-12 	25000
2.235 	400 	2.3732e-13 	25000
2.245 	400 	2.21105e-12 	25000
2.255 	400 	4.12681e-13 	25000
2.265 	400 	1.92887e-13 	25000
2.275 	400 	9.08585e-13 	25000
2.285 	400 	3.62301e-15 	25000
2.295 	400 	1.07866e-12 	25000
2.305 	400 	7.54321e-13 	25000
2.315 	400 	2.64419e-12 	25000
2.325 	400 	1.21959e-12 	25000
2.335 	400 	1.39842e-12 	25000
2.345 	400 	2.85813e-13 	25000
2.355 	400 	1.19078e-12 	25000
2.365 	400 	3.89675e-12 	25000
2.375 	400 	2.21712e-12 	25000
2.385 	400 	1.13614e-13 	25000
2.395 	400 	5.77741e-13 	25000
2.405 	400 	3.84361e-13 	25000
2.415 	400 	3.25156e-12 	25000
2.425 	400 	7.53461e-13 	25000
2.435 	400 	1.8807e-13 	25000
2.445 	400 	6.86124e-13 	25000
2.455 	400 	2.22686e-12 	25000
2.465 	400 	2.5922e-12 	25000
2.475 	400 	1.87969e-12 	25000
2.485 	400 	3.15672e-13 	25000
2.495 	400 	2.25691e-12 	25000
2.505 	400 	2.34509e-13 	25000
2.515 	400 	1.44902e-12 	25000
2.525 	400 	1.46327e-12 	25000
2.535 	400 	2.65058e-12 	25000
2.545 	400 	4.02675e-12 	25000
2.555 	400 	1.23986e-12 	25000
2.565 	400 	2.40172e-12 	25000
2.575 	400 	1.95801e-12 	25000
2.585 	400 	9.61343e-13 	25000
2.595 	400 	4.78097e-16 	25000
2.605 	400 	4.23384e-17 	25000
2.615 	400 	5.67716e-20 	25000
2.625 	400 	4.18637e-14 	25000
2.635 	400 	1.03794e-13 	25000
2.645 	400 	1.11873e-12 	25000
2.655 	400 	4.20478e-12 	25000
2.665 	400 	3.07941e-13 	25000
2.675 	400 	8.37399e-13 	25000
2.685 	400 	2.20225e-12 	25000
2.695 	400 	2.41139e-12 	25000
2.705 	400 	2.14498e-12 	25000
2.715 	400 	1.25078e-12 	25000
2.725 	400 	1.62097e-12 	25000
2.735 	400 	2.27066e-12 	25000
2.745 	400 	4.91671e-13 	25000
2.755 	400 	1.85164e-12 	25000
2.765 	400 	3.76589e-13 	25000
2.775 	400 	1.619e-13 	25000
2.785 	400 	1.2318e-12 	25000
2.795 	400 	2.48586e-12 	25000
2.805 	400 	1.07861e-12 	25000
2.815 	400 	2.55497e-12 	25000
2.825 	400 	1.09719e-12 	25000
2.835 	400 	7.33853e-14 	25000
2.845 	400 	1.67448e-13 	25000
2.855 	400 	2.30714e-12 	25000
2.865 	400 	1.12908e-12 	25000
2.875 	400 	1.25317e-12 	25000
2.885 	400 	8.92731e-15 	25000
2.895 	400 	4.70881e-12 	25000
2.905 	400 	4.1105e-12 	25000
2.915 	400 	1.63642e-12 	25000
2.925 	400 	2.97081e-13 	25000
2.935 	400 	1.28918e-12 	25000
2.945 	400 	1.66977e-12 	25000
2.955 	400 	3.25632e-12 	25000
2.965 	400 	6.37778e-13 	25000
2.975 	400 	1.14856e-12 	25000
2.985 	400 	2.05102e-12 	25000
2.995 	400 	8.54254e-13 	25000
3.005 	400 	2.5973e-14 	25000
3.015 	400 	7.53368e-13 	25000
3.025 	400 	2.94092e-13 	25000
3.035 	400 	9.91597e-13 	25000
3.045 	400 	3.92682e-13 	25000
3.055 	400 	1.18419e-12 	25000
3.065 	400 	1.72212e-12 	25000
3.075 	400 	9.11206e-13 	25000
3.085 	400 	4.49709e-12 	25000
3.095 	400 	2.06858e-12 	25000
3.105 	400 	3.93799e-13 	25000
3.115 	400 	1.6562e-12 	25000
3.125 	400 	1.71678e-12 	25000
3.135 	400 	5.5113e-13 	25000
3.145 	400 	5.69675e-13 	25000
3.155 	400 	2.46983e-13 	25000
3.165 	400 	1.58127e-12 	25000
3.175 	400 	7.24219e-13 	25000
3.185 	400 	2.13704e-12 	25000
3.195 	400 	1.5577e-12 	25000
3.205 	400 	2.80686e-13 	25000
3.215 	400 	1.01499e-12 	25000
3.225 	400 	1.27952e-12 	25000
3.235 	400 	2.87287e-12 	25000
3.245 	400 	2.67274e-12 	25000
3.255 	400 	4.19414e-12 	25000
3.265 	400 	2.39933e-12 	25000
3.275 	400 	9.41533e-14 	25000
3.285 	400 	8.52085e-13 	25000
3.295 	400 	3.69086e-12 	25000
3.305 	400 	2.86759e-12 	25000
3.315 	400 	2.97821e-12 	25000
3.325 	400 	2.9752e-13 	25000
3.335 	400 	1.33309e-13 	25000
3.345 	400 	5.57878e-13 	25000
3.355 	400 	1.71949e-12 	25000
3.365 	400 	9.60924e-13 	25000
3.375 	400 	1.92172e-12 	25000
3.385 	400 	1.22317e-12 	25000
3.395 	400 	2.28582e-12 	25000
3.405 	400 	1.47851e-12 	25000
3.415 	400 	4.45891e-12 	25000
3.425 	400 	1.89546e-12 	25000
3.435 	400 	4.22017e-12 	25000
3.445 	400 	1.48661e-12 	25000
3.455 	400 	2.72069e-12 	25000
3.465 	400 	1.06336e-12 	25000
3.475 	400 	3.70768e-12 	25000
3.485 	400 	1.64701e-12 	25000
3.495 	400 	5.16028e-13 	25000
3.505 	400 	3.07876e-12 	25000
3.515 	400 	1.13329e-12 	25000
3.525 	400 	1.13063e-12 	25000
3.535 	400 	4.33187e-12 	25000
3.545 	400 	2.51717e-12 	25000
3.555 	400 	2.29478e-12 	25000
3.565 	400 	4.81447e-13 	25000
3.575 	400 	1.09967e-13 	25000
3.585 	400 	2.69029e-12 	25000
3.595 	400 	3.50307e-13 	25000
3.605 	400 	1.83837e-12 	25000
3.615 	400 	1.2698e-13 	25000
3.625 	400 	1.25522e-12 	25000
3.635 	400 	2.46073e-12 	25000
3.645 	400 	3.07629e-12 	25000
3.655 	400 	2.34089e-12 	25000
3.665 	400 	5.0482e-12 	25000
3.675 	400 	1.63589e-12 	25000
3.685 	400 	1.71156e-12 	25000
3.695 	400 	2.35826e-12 	25000
3.705 	400 	1.39072e-12 	25000
3.715 	400 	3.89116e-12 	25000
3.725 	400 	7.85278e-14 	25000
3.735 	400 	5.60415e-12 	25000
3.745 	400 	2.08724e-12 	25000
3.755 	400 	4.6509e-12 	25000
3.765 	400 	5.916e-12 	25000
3.775 	400 	3.58109e-12 	25000
3.785 	400 	6.77973e-12 	25000
3.795 	400 	5.64912e-12 	25000
3.805 	400 	5.89105e-12 	25000
3.815 	400 	3.55192e-12 	25000
3.825 	400 	4.71705e-12 	25000
3.835 	400 	2.14632e-12 	25000
3.845 	400 	2.94684e-12 	25000
3.855 	400 	1.88248e-12 	25000
3.865 	400 	2.95448e-14 	25000
3.875 	400 	9.31604e-13 	25000
3.885 	400 	9.28477e-13 	25000
3.895 	400 	3.40131e-12 	25000
3.905 	400 	1.9242e-12 	25000
3.915 	400 	1.08265e-12 	25000
3.925 	400 	2.3873e-12 	25000
3.935 	400 	2.7991e-12 	25000
3.945 	400 	1.27949e-12 	25000
3.955 	400 	1.13843e-12 	25000
3.965 	400 	1.21734e-12 	25000
3.975 	400 	4.95404e-13 	25000
3.985 	400 	3.01377e-12 	25000
3.995 	400 	7.26939e-13 	25000
4.005 	400 	8.76797e-14 	25000
4.015 	400 	7.16859e-13 	25000
4.025 	400 	2.96852e-12 	25000
4.035 	400 	1.89363e-12 	25000
4.045 	400 	1.10049e-12 	25000
4.055 	400 	2.28956e-12 	25000
4.065 	400 	8.19445e-13 	25000
4.075 	400 	6.16462e-12 	25000
4.085 	400 	4.20627e-12 	25000
4.095 	400 	4.27794e-12 	25000
4.105 	400 	5.0942e-12 	25000
4.115 	400 	3.51834e-12 	25000
4.125 	400 	4.8017e-12 	25000
4.135 	400 	2.36843e-12 	25000
4.145 	400 	5.53483e-12 	25000
4.155 	400 	1.63917e-13 	25000
4.165 	400 	6.78911e-13 	25000
4.175 	400 	1.93522e-12 	25000
4.185 	400 	2.34893e-12 	25000
4.195 	400 	1.21751e-12 	25000
4.205 	400 	1.19457e-12 	25000
4.215 	400 	1.96345e-12 	25000
4.225 	400 	1.12863e-12 	25000
4.235 	400 	2.84793e-12 	25000
4.245 	400 	1.24932e-12 	25000
4.255 	400 	4.67103e-13 	25000
4.265 	400 	1.03765e-13 	25000
4.275 	400 	1.56123e-12 	25000
4.285 	400 	1.93258e-12 	25000
4.295 	400 	2.36489e-12 	25000
4.305 	400 	1.05335e-12 	25000