/*--------------------------------*- C++ -*----------------------------------*\
| =========                 |                                                 |
| \\      /  F ield         | OpenFOAM: The Open Source CFD Toolbox           |
|  \\    /   O peration     | Version:  4.1                                   |
|   \\  /    A nd           | Web:      www.OpenFOAM.org                      |
|    \\/     M anipulation  |                                                 |
\*---------------------------------------------------------------------------*/
FoamFile
{
    version     2.0;
    format      ascii;
    class       volScalarField;
    location    "0.0046";
    object      mag(U);
}
// * * * * * * * * * * * * * * * * * * * * * * * * * * * * * * * * * * * * * //

dimensions      [0 1 -1 0 0 0 0];

internalField   nonuniform List<scalar> 
1000
(
8.01517e-12
7.51383e-12
1.13189e-11
7.65571e-12
7.72312e-12
7.17355e-12
6.92479e-12
8.2239e-12
6.98672e-12
7.70874e-12
4.52451e-12
6.10093e-12
3.50996e-12
7.06854e-12
5.21416e-12
6.58108e-12
3.15418e-12
6.41483e-12
3.1713e-12
4.48657e-12
3.08391e-12
4.46404e-12
4.52945e-12
5.83621e-12
3.21892e-12
8.43851e-12
8.39876e-12
1.20411e-11
9.87286e-12
8.20397e-12
1.05357e-11
9.52056e-12
1.03855e-11
9.66115e-12
1.35212e-11
1.06436e-11
1.4584e-11
1.10739e-11
1.60383e-11
1.26766e-11
1.43287e-11
9.36074e-12
1.21746e-11
7.1309e-12
8.1154e-12
3.62425e-12
4.40029e-12
5.29397e-12
6.99779e-12
4.62004e-12
8.45465e-12
7.83024e-12
1.07271e-11
1.21169e-11
1.24556e-11
1.61422e-11
1.63435e-11
1.89862e-11
1.8407e-11
2.13763e-11
1.96386e-11
2.21516e-11
1.97039e-11
2.10797e-11
1.77157e-11
1.98072e-11
1.70999e-11
1.86113e-11
1.50228e-11
1.79396e-11
1.3113e-11
1.67843e-11
1.24404e-11
1.50359e-11
1.13129e-11
1.50351e-11
1.07854e-11
1.14947e-11
9.8484e-12
8.88528e-12
6.11934e-12
5.61698e-12
5.19269e-12
5.35315e-12
4.33441e-12
2.07838e-12
7.3508e-12
7.5089e-13
1.38962e-12
4.19226e-13
3.0343e-12
4.55283e-12
1.20356e-12
4.73576e-12
4.16969e-12
5.59992e-12
3.65612e-12
6.57441e-12
6.24878e-12
6.98353e-12
5.27078e-12
5.33005e-12
8.63137e-12
7.88904e-12
1.04237e-11
1.11465e-11
1.10276e-11
1.01576e-11
9.24343e-12
1.19005e-11
9.75919e-12
9.98697e-12
9.6116e-12
7.01425e-12
8.16357e-12
8.80538e-12
1.09229e-11
1.16068e-11
1.15221e-11
1.15522e-11
1.13242e-11
1.2691e-11
1.27824e-11
1.43425e-11
1.56486e-11
1.51214e-11
1.38675e-11
1.6594e-11
1.35239e-11
1.52836e-11
1.21435e-11
1.2894e-11
1.44499e-11
1.36239e-11
1.6603e-11
1.58443e-11
1.45158e-11
1.52748e-11
1.51346e-11
1.46643e-11
1.53538e-11
1.72491e-11
1.78573e-11
1.83421e-11
1.71714e-11
1.59618e-11
1.55399e-11
1.30792e-11
1.43824e-11
1.33171e-11
1.42403e-11
1.27707e-11
1.44586e-11
1.12615e-11
1.5688e-11
1.42742e-11
1.38348e-11
1.2935e-11
1.22465e-11
1.44786e-11
1.33905e-11
1.17045e-11
1.12705e-11
1.05596e-11
9.17523e-12
9.92575e-12
7.6168e-12
6.52023e-12
7.89038e-12
8.6244e-12
8.94855e-12
6.0165e-12
4.54139e-12
6.05442e-12
5.16634e-12
8.05066e-12
5.23577e-12
8.39068e-12
7.01732e-12
1.02748e-11
6.45294e-12
8.36341e-12
9.32836e-12
7.93197e-12
9.02553e-12
1.15231e-11
1.0205e-11
1.18553e-11
1.12022e-11
1.3437e-11
1.54529e-11
1.04727e-11
1.23078e-11
9.52825e-12
1.24564e-11
1.04255e-11
1.28805e-11
8.87111e-12
1.14481e-11
6.91707e-12
1.1237e-11
6.56216e-12
1.09301e-11
1.05597e-11
1.21704e-11
1.03457e-11
1.32583e-11
1.35968e-11
1.51382e-11
1.39076e-11
1.0814e-11
9.906e-12
8.94285e-12
8.4038e-12
7.18592e-12
1.22984e-11
7.23778e-12
1.19028e-11
6.74194e-12
9.7489e-12
6.94456e-12
1.01674e-11
4.90281e-12
7.64269e-12
4.12526e-12
8.83621e-12
2.10042e-12
3.82754e-12
1.63767e-12
5.58496e-12
3.26365e-12
5.90387e-12
8.00501e-12
7.85943e-12
1.03765e-11
9.1627e-12
1.30737e-11
1.15603e-11
1.57685e-11
1.10991e-11
1.24251e-11
8.07043e-12
1.27684e-11
7.69563e-12
1.08191e-11
7.85591e-12
8.21581e-12
5.56874e-12
9.69879e-12
9.21271e-12
1.09531e-11
8.44783e-12
1.19124e-11
8.63139e-12
8.0659e-12
8.33475e-12
7.46831e-12
5.16615e-12
9.76445e-12
7.94366e-12
9.875e-12
9.44804e-12
1.26085e-11
1.77666e-11
2.92598e-11
5.70287e-11
1.14271e-10
2.41321e-10
5.08873e-10
1.07416e-09
2.24632e-09
4.66396e-09
9.59679e-09
1.95851e-08
3.96274e-08
7.95214e-08
1.58229e-07
3.12175e-07
6.106e-07
1.18391e-06
2.27518e-06
4.33305e-06
8.17673e-06
1.52864e-05
2.83071e-05
5.19124e-05
9.42648e-05
0.000169451
0.00030148
0.00053076
0.000924392
0.00159228
0.00271189
0.00456545
0.0075948
0.0124802
0.0202508
0.0324341
0.0512527
0.0798699
0.122683
0.185647
0.276592
0.405485
0.584534
0.828024
1.15174
1.57176
2.10237
2.75245
3.52101
4.39778
5.37032
6.42857
7.56414
8.76907
10.0356
11.3562
12.7239
14.1326
15.5767
17.0514
18.5526
20.0769
21.6213
23.1833
24.7609
26.3521
27.9556
29.5699
31.1941
32.827
34.468
36.1162
37.771
39.4319
41.0983
42.7698
44.446
46.1265
47.811
49.4993
51.191
52.8858
54.5836
56.2842
57.9873
59.6928
61.4004
63.1101
64.8217
66.535
68.25
69.9663
71.6841
73.403
75.1231
76.8441
78.5661
80.2888
82.0121
83.7361
85.4605
87.1852
88.9102
90.6354
92.3607
94.0859
95.8109
97.5357
99.2602
100.984
102.708
104.43
106.152
107.874
109.594
111.313
113.03
114.747
116.462
118.175
119.886
121.595
123.303
125.008
126.71
128.41
130.107
131.801
133.492
135.179
136.862
138.541
140.217
141.887
143.553
145.213
146.867
148.516
150.158
151.794
153.422
155.042
156.653
158.256
159.848
161.431
163.002
164.561
166.107
167.639
169.156
170.656
172.14
173.604
175.049
176.47
177.87
179.242
180.589
181.904
183.188
184.439
185.651
186.825
187.955
189.04
190.077
191.061
191.992
192.865
193.678
194.429
195.116
195.737
196.292
196.781
197.205
197.566
197.868
198.113
198.307
198.457
198.567
198.642
198.691
198.72
198.732
198.734
198.735
198.735
198.732
198.726
198.714
198.695
198.673
198.653
198.636
198.621
198.611
198.604
198.598
198.595
198.593
198.591
198.59
198.589
198.588
198.587
198.586
198.586
198.585
198.584
198.583
198.583
198.582
198.581
198.581
198.58
198.579
198.579
198.578
198.577
198.577
198.576
198.575
198.575
198.574
198.574
198.573
198.572
198.572
198.571
198.57
198.57
198.569
198.569
198.568
198.568
198.567
198.567
198.566
198.566
198.565
198.565
198.564
198.564
198.563
198.563
198.562
198.561
198.561
198.56
198.56
198.559
198.559
198.558
198.558
198.558
198.557
198.557
198.556
198.555
198.555
198.554
198.554
198.553
198.552
198.552
198.551
198.55
198.55
198.549
198.549
198.548
198.548
198.547
198.547
198.547
198.546
198.546
198.545
198.545
198.545
198.544
198.544
198.544
198.543
198.544
198.544
198.545
198.545
198.546
198.547
198.546
198.543
198.542
198.542
198.543
198.543
198.543
198.543
198.542
198.542
198.542
198.542
198.542
198.542
198.542
198.541
198.541
198.541
198.541
198.541
198.54
198.54
198.54
198.54
198.54
198.538
198.537
198.54
198.549
198.564
198.6
198.691
198.852
198.861
198.682
198.547
198.497
198.493
198.486
198.479
198.498
198.532
198.536
198.514
198.511
198.54
198.556
198.532
198.508
198.524
198.557
198.551
198.517
198.511
198.541
198.553
198.523
198.498
198.521
198.551
198.537
198.501
198.504
198.539
198.547
198.515
198.495
198.52
198.549
198.531
198.497
198.504
198.538
198.541
198.508
198.493
198.522
198.545
198.52
198.489
198.506
198.543
198.535
198.495
198.49
198.528
198.545
198.512
198.482
198.505
198.541
198.528
198.489
198.488
198.526
198.539
198.503
198.478
198.506
198.538
198.518
198.479
198.486
198.526
198.53
198.49
198.47
198.503
198.533
198.507
198.467
198.479
198.519
198.517
198.474
198.459
198.495
198.519
198.486
198.446
198.463
198.504
198.496
198.448
198.434
198.469
198.49
198.453
198.414
198.431
198.468
198.45
198.398
198.388
198.425
198.435
198.387
198.345
198.363
198.394
198.368
198.311
198.294
198.321
198.323
198.27
198.223
198.23
198.246
198.205
198.139
198.118
198.134
198.111
198.037
197.982
197.977
197.97
197.902
197.819
197.78
197.766
197.714
197.614
197.533
197.49
197.442
197.333
197.203
197.112
197.046
196.933
196.753
196.594
196.49
196.373
196.146
195.882
195.693
195.538
195.262
194.862
194.512
194.252
193.947
193.395
192.684
192.003
191.367
190.064
186.682
178.656
154.46
93.2897
30.3907
7.88298
1.91771
0.456804
0.1082
0.0255866
0.0060477
0.00142917
0.000337718
7.98023e-05
1.88567e-05
4.4556e-06
1.05277e-06
2.48739e-07
5.8768e-08
1.38826e-08
3.27793e-09
7.72081e-10
1.80183e-10
4.05109e-11
8.59148e-12
1.96496e-13
1.90901e-12
3.69386e-12
7.98921e-13
4.5277e-12
3.9335e-12
4.35688e-12
6.88281e-12
4.22078e-12
5.2824e-12
7.11509e-12
5.70538e-12
9.29612e-12
5.93837e-12
1.07024e-11
8.07606e-12
1.06801e-11
9.04566e-12
1.06624e-11
9.35091e-12
9.18275e-12
8.76822e-12
6.87425e-12
6.89825e-12
1.75926e-12
3.00206e-12
1.8552e-12
1.60301e-12
1.76703e-12
1.04608e-12
1.39952e-12
3.98474e-13
8.27156e-14
1.78913e-12
1.17562e-12
1.21162e-12
3.24402e-12
1.39146e-12
7.20751e-12
5.61e-12
8.82931e-12
8.23698e-12
1.04409e-11
9.88838e-12
1.22691e-11
1.28283e-11
1.2626e-11
1.20494e-11
1.0372e-11
1.01742e-11
8.95689e-12
6.9288e-12
7.36489e-12
5.98669e-12
4.91816e-12
4.46379e-12
5.4158e-12
8.26024e-12
8.09149e-12
9.71551e-12
7.58819e-12
5.6051e-12
4.23333e-12
3.65693e-12
4.94732e-12
8.05794e-12
8.74563e-12
1.00346e-11
1.02319e-11
1.12382e-11
8.7421e-12
8.45702e-12
7.84047e-12
8.03014e-12
5.81951e-12
5.04314e-12
4.02909e-13
3.9069e-12
6.60727e-13
9.90967e-13
5.37723e-13
2.10634e-12
6.56526e-13
2.27617e-12
1.76154e-12
1.18408e-12
2.26732e-12
1.49678e-12
2.89246e-12
6.90243e-13
1.17741e-12
3.02765e-12
4.20194e-13
4.04078e-13
2.79987e-12
2.05698e-12
3.59953e-12
4.41944e-12
5.31396e-12
4.59043e-12
6.19192e-12
7.25373e-12
8.13708e-12
6.3904e-12
8.75243e-12
6.10347e-12
6.49783e-12
8.16222e-12
4.28176e-12
7.19341e-12
8.76049e-12
7.89244e-12
6.92793e-12
6.01954e-12
3.59333e-12
6.64069e-12
6.72587e-12
3.8622e-12
6.58295e-12
7.05646e-12
7.06074e-12
9.32059e-12
8.04896e-12
8.84296e-12
5.7985e-12
4.002e-12
1.54644e-12
1.88808e-14
3.26064e-12
1.73465e-12
9.61404e-13
5.75994e-13
3.00865e-12
1.8796e-12
5.61923e-12
5.1695e-12
3.4914e-12
7.22303e-12
7.4679e-12
1.09695e-11
9.19695e-12
8.55198e-12
6.93965e-12
1.15639e-11
9.54944e-12
8.72916e-12
8.58085e-12
7.13514e-12
9.63936e-12
1.10741e-11
1.47435e-11
1.67815e-11
1.97688e-11
2.00966e-11
2.36866e-11
2.32547e-11
2.48209e-11
2.51142e-11
2.75441e-11
2.54606e-11
2.60217e-11
2.38459e-11
2.43879e-11
2.33532e-11
2.25467e-11
2.15465e-11
2.02806e-11
1.93467e-11
1.9896e-11
1.95948e-11
1.79839e-11
1.7417e-11
1.85727e-11
1.86957e-11
2.1752e-11
2.12393e-11
2.41536e-11
2.20279e-11
2.14489e-11
2.0854e-11
2.55728e-11
2.51447e-11
2.64648e-11
2.54107e-11
2.46175e-11
2.44809e-11
2.47819e-11
2.24474e-11
2.33911e-11
2.4235e-11
2.30097e-11
2.51589e-11
2.71656e-11
2.83202e-11
2.6863e-11
2.68031e-11
2.69034e-11
2.8398e-11
2.89837e-11
3.20733e-11
3.14022e-11
3.57516e-11
3.54675e-11
3.63639e-11
3.60093e-11
3.95267e-11
3.83221e-11
3.95279e-11
3.83691e-11
3.78477e-11
3.58622e-11
3.34801e-11
3.18684e-11
3.10553e-11
3.18867e-11
3.0743e-11
2.98269e-11
2.74204e-11
2.79591e-11
2.70204e-11
2.53475e-11
2.39678e-11
2.57171e-11
2.09939e-11
2.35791e-11
2.00331e-11
2.36198e-11
2.00489e-11
2.37835e-11
2.33356e-11
)
;

boundaryField
{
    sides
    {
        type            calculated;
        value           nonuniform List<scalar> 2(2.33356e-11 8.01517e-12);
    }
    empty
    {
        type            empty;
    }
}


// ************************************************************************* //
