/*--------------------------------*- C++ -*----------------------------------*\
| =========                 |                                                 |
| \\      /  F ield         | OpenFOAM: The Open Source CFD Toolbox           |
|  \\    /   O peration     | Version:  4.1                                   |
|   \\  /    A nd           | Web:      www.OpenFOAM.org                      |
|    \\/     M anipulation  |                                                 |
\*---------------------------------------------------------------------------*/
FoamFile
{
    version     2.0;
    format      ascii;
    class       volScalarField;
    location    "0.0046";
    object      p;
}
// * * * * * * * * * * * * * * * * * * * * * * * * * * * * * * * * * * * * * //

dimensions      [1 -1 -2 0 0 0 0];

internalField   nonuniform List<scalar> 
1000
(
100000
100000
100000
100000
100000
100000
100000
100000
100000
100000
100000
100000
100000
100000
100000
100000
100000
100000
100000
100000
100000
100000
100000
100000
100000
100000
100000
100000
100000
100000
100000
100000
100000
100000
100000
100000
100000
100000
100000
100000
100000
100000
100000
100000
100000
100000
100000
100000
100000
100000
100000
100000
100000
100000
100000
100000
100000
100000
100000
100000
100000
100000
100000
100000
100000
100000
100000
100000
100000
100000
100000
100000
100000
100000
100000
100000
100000
100000
100000
100000
100000
100000
100000
100000
100000
100000
100000
100000
100000
100000
100000
100000
100000
100000
100000
100000
100000
100000
100000
100000
100000
100000
100000
100000
100000
100000
100000
100000
100000
100000
100000
100000
100000
100000
100000
100000
100000
100000
100000
100000
100000
100000
100000
100000
100000
100000
100000
100000
100000
100000
100000
100000
100000
100000
100000
100000
100000
100000
100000
100000
100000
100000
100000
100000
100000
100000
100000
100000
100000
100000
100000
100000
100000
100000
100000
100000
100000
100000
100000
100000
100000
100000
100000
100000
100000
100000
100000
100000
100000
100000
100000
100000
100000
100000
100000
100000
100000
100000
100000
100000
100000
100000
100000
100000
100000
100000
100000
100000
100000
100000
100000
100000
100000
100000
100000
100000
100000
100000
100000
100000
100000
100000
100000
100000
100000
100000
100000
100000
100000
100000
100000
100000
100000
100000
100000
100000
100000
100000
100000
100000
100000
100000
100000
100000
100000
100000
100000
100000
100000
100000
100000
100000
100000
100000
100000
100000
100000
100000
100000
100000
100000
100000
100000
100000
100000
100000
100000
100000
100000
100000
100000
100000
100000
100000
100000
100000
100000
100000
100000
100000
100000
100000
100000
100000
100000
100000
100000
100000
100000
100000
100000
100000
100000
100000
100000
100000
100000
100000
100000
100000
100000
100000
100000
100000
100000
100000
100000
99999.9
99999.9
99999.8
99999.7
99999.5
99999.1
99998.4
99997.4
99995.7
99993
99988.8
99982.3
99972.4
99957.6
99935.8
99904.2
99859.5
99797.4
99712.8
99600.4
99454.4
99269.9
99043.7
98776.1
98471.9
98135.7
97771.3
97381.8
96970.2
96539.2
96091.8
95630.3
95157.2
94674.4
94183.6
93686.3
93183.8
92677.2
92167.2
91654.7
91140.2
90624.4
90107.7
89590.4
89073
88555.7
88038.7
87522.3
87006.7
86492
85978.4
85466
84954.9
84445.3
83937.3
83430.8
82926.1
82423.1
81922
81422.8
80925.5
80430.2
79936.9
79445.7
78956.6
78469.6
77984.8
77502.3
77021.9
76543.8
76068
75594.5
75123.3
74654.5
74188
73723.9
73262.2
72802.9
72346.1
71891.7
71439.7
70990.2
70543.2
70098.8
69656.8
69217.3
68780.5
68346.1
67914.4
67485.2
67058.6
66634.7
66213.4
65794.7
65378.7
64965.4
64554.8
64147
63741.8
63339.5
62939.9
62543.2
62149.3
61758.3
61370.3
60985.1
60602.9
60223.8
59847.7
59474.7
59104.9
58738.3
58375
58015
57658.3
57305.2
56955.6
56609.6
56267.4
55929
55594.5
55264.1
54937.9
54616.1
54298.7
53985.9
53678
53375.2
53077.6
52785.6
52499.1
52219
51944.8
51677.7
51417.1
51164.3
50919
50681.9
50453.5
50234
50024.2
49824.3
49634.9
49456.5
49289.4
49134.2
48991.1
48860.3
48742.5
48636.8
48544
48463.5
48394.8
48337.5
48290.5
48253.3
48224.8
48203.8
48188.5
48179.2
48173.6
48170.8
48170.4
48170.5
48170.7
48171.2
48172.2
48174.3
48177.3
48181
48184.9
48188
48190.6
48192.6
48194.1
48195.1
48195.8
48196.2
48196.5
48196.7
48196.8
48196.9
48197
48197.2
48197.3
48197.5
48197.6
48197.7
48197.8
48197.9
48198
48198.1
48198.3
48198.4
48198.5
48198.6
48198.6
48198.7
48198.8
48198.9
48198.9
48199
48199.1
48199.2
48199.3
48199.4
48199.5
48199.5
48199.6
48199.7
48199.8
48199.9
48200
48200
48200.1
48200.2
48200.2
48200.3
48200.4
48200.5
48200.5
48200.6
48200.7
48200.7
48200.8
48200.9
48200.9
48201
48201.1
48201.2
48201.3
48201.3
48201.4
48201.5
48201.6
48201.7
48201.7
48201.8
48201.9
48201.9
48201.9
48202
48202
48202
48202.1
48202.1
48202.1
48202.1
48202.1
48202.1
48202.1
48202.2
48202.2
48202.2
48202.2
48202.2
48202.2
48202.2
48202.3
48202.3
48202.3
48202.4
48202.6
48202.8
48203
48203.2
48203.6
48204.1
48203.9
48202.1
48201.9
48202.2
48202.4
48202.4
48202.4
48202.4
48202.3
48202.3
48202.4
48202.3
48202.3
48202.3
48202.3
48202.3
48202.3
48202.3
48202.4
48202.4
48202.4
48202.4
48202.4
48202.5
48202.6
48202.6
48202.6
48203
48202.6
48202.1
48204.2
48210.9
48215.9
48197.6
48193.2
48190.4
48204.2
48209.7
48204.5
48196
48201.2
48211
48208.1
48195.4
48195.1
48209.2
48213.1
48200.1
48192.4
48201.9
48213.8
48209.4
48194
48194.2
48210.4
48213.8
48198.3
48191.1
48204.1
48214.8
48206.5
48192
48195.4
48212.1
48213.3
48196.4
48190.9
48205.3
48214.7
48204.7
48191.2
48196.4
48212.4
48211.7
48194.5
48191.3
48207.3
48214.3
48200.6
48189.6
48199.8
48214.8
48209.3
48190.4
48191.2
48211.3
48215.3
48196.9
48188.2
48201.9
48215
48207.2
48189.7
48192.1
48211.7
48214
48194.8
48188
48203.9
48215.1
48203.7
48188
48193.9
48213.3
48212.4
48191.2
48187.1
48206.2
48215.2
48200.5
48186.4
48194.6
48212.9
48210
48188.7
48186.5
48206.9
48214
48196
48183.6
48194.9
48212.1
48207
48185.5
48184
48204.6
48211
48191.8
48180.2
48192.7
48209
48200.2
48178.9
48180.1
48202.1
48205.5
48182
48172.4
48186.5
48201.3
48190.8
48169.8
48170.1
48189.6
48192.7
48169.8
48160.6
48172.4
48185.2
48170.3
48151.2
48152.9
48170.6
48168.2
48141
48134.9
48146.1
48155.4
48133.1
48116.5
48116
48127.8
48121.7
48092
48085.4
48087.3
48094.1
48065.9
48045.3
48040.9
48046.6
48036.3
47989.2
47975.7
47974.3
47980.6
47922.7
47881.8
47871.5
47880.2
47847.7
47751.4
47722.7
47716
47717.7
47566.2
47482.1
47445.7
47407.9
47283.1
46698.7
45740.8
43503.8
33738.2
27504
25645.6
25156.2
25037.1
25008.8
25002.1
25000.5
25000.1
25000
25000
25000
25000
25000
25000
25000
25000
25000
25000
25000
25000
25000
25000
25000
25000
25000
25000
25000
25000
25000
25000
25000
25000
25000
25000
25000
25000
25000
25000
25000
25000
25000
25000
25000
25000
25000
25000
25000
25000
25000
25000
25000
25000
25000
25000
25000
25000
25000
25000
25000
25000
25000
25000
25000
25000
25000
25000
25000
25000
25000
25000
25000
25000
25000
25000
25000
25000
25000
25000
25000
25000
25000
25000
25000
25000
25000
25000
25000
25000
25000
25000
25000
25000
25000
25000
25000
25000
25000
25000
25000
25000
25000
25000
25000
25000
25000
25000
25000
25000
25000
25000
25000
25000
25000
25000
25000
25000
25000
25000
25000
25000
25000
25000
25000
25000
25000
25000
25000
25000
25000
25000
25000
25000
25000
25000
25000
25000
25000
25000
25000
25000
25000
25000
25000
25000
25000
25000
25000
25000
25000
25000
25000
25000
25000
25000
25000
25000
25000
25000
25000
25000
25000
25000
25000
25000
25000
25000
25000
25000
25000
25000
25000
25000
25000
25000
25000
25000
25000
25000
25000
25000
25000
25000
25000
25000
25000
25000
25000
25000
25000
25000
25000
25000
25000
25000
25000
25000
25000
25000
25000
25000
25000
25000
25000
25000
25000
25000
25000
25000
25000
25000
25000
25000
25000
25000
25000
25000
25000
25000
25000
25000
25000
25000
25000
25000
25000
25000
25000
25000
25000
25000
25000
25000
25000
25000
25000
25000
25000
25000
25000
25000
25000
25000
25000
25000
25000
25000
25000
25000
25000
25000
25000
)
;

boundaryField
{
    sides
    {
        type            zeroGradient;
    }
    empty
    {
        type            empty;
    }
}


// ************************************************************************* //
