/*--------------------------------*- C++ -*----------------------------------*\
| =========                 |                                                 |
| \\      /  F ield         | OpenFOAM: The Open Source CFD Toolbox           |
|  \\    /   O peration     | Version:  4.1                                   |
|   \\  /    A nd           | Web:      www.OpenFOAM.org                      |
|    \\/     M anipulation  |                                                 |
\*---------------------------------------------------------------------------*/
FoamFile
{
    version     2.0;
    format      ascii;
    class       surfaceScalarField;
    location    "0.0046";
    object      phi;
}
// * * * * * * * * * * * * * * * * * * * * * * * * * * * * * * * * * * * * * //

dimensions      [1 0 -1 0 0 0 0];

internalField   nonuniform List<scalar> 
999
(
-2.61124e-11
-3.40421e-11
-3.36584e-11
-2.49472e-11
-2.74838e-11
-2.37819e-11
-2.62617e-11
-2.6553e-11
-2.54872e-11
-2.00089e-11
-2.01368e-11
-1.53833e-11
-1.82538e-11
-2.20055e-11
-2.00799e-11
-1.81473e-11
-1.52838e-11
-1.80194e-11
-1.28964e-11
-1.20011e-11
-1.41469e-11
-1.51203e-11
-1.88933e-11
-1.46727e-11
-2.11386e-11
-2.85496e-11
-3.64579e-11
-3.81988e-11
-3.18607e-11
-3.14415e-11
-3.58611e-11
-3.33742e-11
-3.61808e-11
-4.14815e-11
-4.05294e-11
-4.49276e-11
-4.59934e-11
-4.44729e-11
-5.2502e-11
-4.60432e-11
-4.23555e-11
-3.60885e-11
-3.4369e-11
-2.66098e-11
-2.07905e-11
-1.35429e-11
-1.58167e-11
-2.32916e-11
-1.88649e-11
-2.22116e-11
-2.82938e-11
-3.27276e-11
-4.09699e-11
-4.19291e-11
-4.89493e-11
-5.668e-11
-6.23643e-11
-6.37641e-11
-7.18217e-11
-6.8944e-11
-7.38325e-11
-7.15943e-11
-7.20703e-11
-6.62084e-11
-6.58886e-11
-6.39915e-11
-6.18456e-11
-5.94014e-11
-5.79092e-11
-5.21396e-11
-5.35252e-11
-5.1358e-11
-4.83311e-11
-4.42384e-11
-4.53113e-11
-4.56453e-11
-3.89235e-11
-3.73035e-11
-3.17044e-11
-2.61693e-11
-2.23324e-11
-1.72733e-11
-1.91918e-11
-1.57883e-11
-1.14397e-11
-1.75007e-11
-1.35572e-11
-3.46745e-12
-1.93978e-12
-4.66827e-12
3.16902e-12
8.79652e-12
1.15605e-11
1.52482e-11
1.6108e-11
1.70033e-11
1.76072e-11
2.28937e-11
2.16076e-11
2.24034e-11
1.78133e-11
2.53664e-11
2.78604e-11
3.25571e-11
3.66427e-11
4.0167e-11
3.5115e-11
3.29123e-11
3.7339e-11
3.97478e-11
3.27063e-11
3.40137e-11
2.94946e-11
2.63896e-11
2.84004e-11
3.49587e-11
4.0778e-11
4.06288e-11
3.88951e-11
4.02665e-11
4.12399e-11
4.57163e-11
4.64979e-11
5.04059e-11
5.47828e-11
5.01785e-11
5.1898e-11
5.46692e-11
4.91625e-11
4.71729e-11
4.26184e-11
4.83027e-11
4.75495e-11
5.3781e-11
5.75895e-11
5.18199e-11
5.05693e-11
5.37952e-11
5.28999e-11
5.12586e-11
5.57634e-11
6.22364e-11
6.10427e-11
6.40696e-11
5.67866e-11
5.49676e-11
4.89635e-11
4.7649e-11
4.7919e-11
4.8388e-11
4.69953e-11
4.89919e-11
4.25331e-11
4.56737e-11
5.41363e-11
4.83666e-11
4.64269e-11
4.23483e-11
4.76277e-11
4.75069e-11
4.51053e-11
3.80709e-11
3.9833e-11
3.28413e-11
3.47029e-11
3.03544e-11
2.3249e-11
2.60059e-11
3.00346e-11
3.1136e-11
2.49045e-11
1.84883e-11
1.86731e-11
1.95897e-11
2.22329e-11
2.39808e-11
2.22116e-11
2.92673e-11
2.8777e-11
2.85851e-11
2.54801e-11
3.19602e-11
2.98854e-11
2.79528e-11
3.58042e-11
3.9357e-11
3.77725e-11
3.88312e-11
4.31655e-11
5.26796e-11
4.54037e-11
3.77938e-11
3.88454e-11
3.88667e-11
3.87743e-11
3.99965e-11
3.87175e-11
3.43476e-11
3.32605e-11
3.12852e-11
3.00062e-11
3.11076e-11
3.64011e-11
4.01812e-11
3.84759e-11
4.03304e-11
4.7315e-11
5.07612e-11
5.02212e-11
4.32152e-11
3.55698e-11
3.17044e-11
3.17044e-11
2.56861e-11
3.43547e-11
3.55485e-11
3.22018e-11
3.25002e-11
2.79599e-11
3.0127e-11
2.87983e-11
2.72209e-11
2.05631e-11
2.10605e-11
2.26876e-11
1.8872e-11
1.11982e-11
8.52651e-12
1.38911e-11
1.40687e-11
1.69535e-11
2.43432e-11
2.80806e-11
3.16618e-11
3.26139e-11
3.92291e-11
4.15952e-11
4.84448e-11
4.68674e-11
4.12115e-11
3.606e-11
3.48876e-11
3.62164e-11
3.19247e-11
3.25286e-11
2.80238e-11
2.37179e-11
2.61906e-11
3.44329e-11
3.38645e-11
3.3495e-11
3.5655e-11
3.56195e-11
2.90754e-11
2.77396e-11
2.85709e-11
2.11315e-11
2.53522e-11
3.20384e-11
3.00915e-11
3.14131e-11
4.0707e-11
5.02069e-11
7.79892e-11
1.42585e-10
2.8286e-10
5.86837e-10
1.23886e-09
2.61934e-09
5.49651e-09
1.14497e-08
2.36502e-08
4.84372e-08
9.83712e-08
1.9812e-07
3.95684e-07
7.83586e-07
1.53853e-06
2.99469e-06
5.77789e-06
1.10484e-05
2.09349e-05
3.93027e-05
7.30933e-05
0.000134636
0.000245578
0.000443486
0.000792762
0.00140243
0.00245468
0.00424988
0.00727626
0.0123159
0.0206026
0.0340511
0.0555825
0.0895732
0.142453
0.223473
0.345641
0.526804
0.79077
1.16833
1.69794
2.4256
3.40367
4.68782
6.33165
8.37775
10.8424
13.6951
16.8808
20.3548
24.0834
28.0352
32.1798
36.4878
40.9316
45.4866
50.1307
54.8449
59.6128
64.4208
69.2571
74.1119
78.977
83.8455
88.7115
93.5701
98.4171
103.249
108.062
112.855
117.624
122.368
127.085
131.774
136.433
141.062
145.658
150.221
154.752
159.247
163.708
168.134
172.524
176.877
181.194
185.474
189.717
193.922
198.09
202.22
206.311
210.365
214.38
218.357
222.295
226.195
230.056
233.878
237.662
241.407
245.114
248.781
252.41
256.001
259.553
263.066
266.54
269.976
273.373
276.732
280.053
283.335
286.579
289.784
292.951
296.081
299.172
302.224
305.239
308.216
311.155
314.056
316.919
319.745
322.533
325.282
327.995
330.669
333.306
335.905
338.466
340.989
343.475
345.923
348.332
350.704
353.038
355.333
357.59
359.808
361.988
364.128
366.23
368.291
370.313
372.295
374.236
376.136
377.993
379.811
381.58
383.316
384.991
386.645
388.221
389.787
391.269
392.724
394.132
395.449
396.787
397.973
399.194
400.307
401.342
402.4
403.284
404.181
405.015
405.703
406.427
407.032
407.535
408.061
408.462
408.783
409.12
409.353
409.517
409.694
409.806
409.863
409.923
409.963
409.973
409.967
409.967
409.967
409.964
409.956
409.949
409.935
409.913
409.893
409.879
409.862
409.849
409.842
409.836
409.829
409.826
409.824
409.82
409.816
409.813
409.811
409.808
409.806
409.805
409.802
409.799
409.797
409.794
409.791
409.789
409.787
409.784
409.781
409.779
409.776
409.773
409.77
409.767
409.764
409.761
409.758
409.756
409.753
409.749
409.746
409.743
409.739
409.736
409.733
409.73
409.727
409.724
409.72
409.716
409.713
409.709
409.705
409.702
409.699
409.694
409.69
409.687
409.683
409.677
409.672
409.669
409.665
409.66
409.654
409.651
409.648
409.642
409.636
409.63
409.627
409.622
409.614
409.607
409.602
409.597
409.59
409.581
409.573
409.567
409.562
409.555
409.545
409.535
409.529
409.525
409.518
409.506
409.494
409.484
409.477
409.473
409.466
409.452
409.435
409.42
409.418
409.418
409.418
409.411
409.399
409.388
409.382
409.322
409.293
409.285
409.28
409.249
409.218
409.195
409.179
409.17
409.158
409.13
409.079
409.027
408.984
408.957
408.943
408.93
408.909
408.849
408.715
408.584
408.479
408.414
408.381
408.367
408.377
408.5
408.698
408.807
408.796
408.573
406.251
395.108
370.741
348.479
329.861
314.888
302.963
293.647
287.003
282.587
279.392
276.884
275.32
274.641
274.289
273.828
273.32
273.214
273.542
273.588
273.18
273.045
273.332
273.562
273.382
273.064
273.143
273.535
273.563
273.131
273.044
273.429
273.591
273.347
273.067
273.185
273.555
273.551
273.125
273.06
273.473
273.597
273.289
273.067
273.254
273.574
273.498
273.091
273.086
273.551
273.628
273.163
273.019
273.376
273.636
273.442
273.06
273.115
273.572
273.623
273.14
273.028
273.421
273.633
273.392
273.054
273.161
273.592
273.595
273.103
273.027
273.508
273.656
273.291
273.02
273.216
273.616
273.567
273.078
273.026
273.534
273.654
273.221
273.002
273.269
273.631
273.509
273.033
273.016
273.549
273.657
273.156
272.97
273.266
273.609
273.458
272.997
273.01
273.535
273.61
273.038
272.898
273.31
273.599
273.318
272.9
272.953
273.469
273.527
272.944
272.83
273.163
273.455
273.177
272.788
272.842
273.308
273.32
272.736
272.65
273.028
273.267
272.776
272.517
272.602
273.019
272.924
272.365
272.322
272.571
272.822
272.231
272.048
272.084
272.387
272.277
271.611
271.558
271.685
271.985
271.101
270.817
270.878
271.258
270.989
269.786
269.717
269.971
270.479
268.423
267.935
268.106
268.934
267.714
265.308
265.036
265.526
266.297
260.869
250.677
232.063
182.945
54.9527
15.2592
3.7687
0.900044
0.213318
0.0504622
0.0119289
0.0028192
0.0006662
0.000157423
3.71987e-05
8.78971e-06
2.07687e-06
4.90717e-07
1.15941e-07
2.73917e-08
6.46994e-09
1.52695e-09
3.5886e-10
8.29559e-11
1.83817e-11
3.34843e-12
7.42517e-13
-8.86402e-13
-1.77991e-12
-2.57572e-12
-3.55271e-12
-3.77653e-12
-4.48708e-12
-5.08571e-12
-4.10871e-12
-5.37348e-12
-5.74296e-12
-6.24034e-12
-6.89937e-12
-7.12674e-12
-8.22453e-12
-8.25828e-12
-8.25473e-12
-8.68638e-12
-8.72191e-12
-8.02736e-12
-7.56906e-12
-7.33813e-12
-5.62927e-12
-3.97549e-12
-1.81899e-12
-5.27578e-13
1.61648e-13
3.90799e-14
1.4122e-12
8.82849e-13
6.16396e-13
-3.17968e-13
-8.75744e-13
-2.30926e-13
1.42109e-14
7.78044e-13
1.79412e-12
4.0874e-12
5.40901e-12
6.07692e-12
7.77867e-12
7.82308e-12
9.04166e-12
9.60299e-12
1.0667e-11
1.15055e-11
1.05924e-11
9.60299e-12
8.79474e-12
8.0238e-12
7.35589e-12
5.74829e-12
6.13731e-12
4.99334e-12
3.87246e-12
4.50484e-12
5.67368e-12
7.16227e-12
7.96163e-12
7.06457e-12
5.9277e-12
4.56701e-12
3.16014e-12
3.94529e-12
5.78737e-12
7.19602e-12
8.32223e-12
9.18199e-12
9.06297e-12
8.65796e-12
7.16582e-12
6.94733e-12
7.24576e-12
6.10889e-12
4.34142e-12
2.4567e-12
1.24523e-12
2.24176e-12
6.05738e-13
7.79821e-13
-7.79821e-13
-1.04272e-12
-1.51168e-12
-1.52056e-12
-3.37508e-13
1.59517e-12
1.78169e-12
1.70353e-12
1.16351e-12
1.33227e-13
1.95399e-12
1.31095e-12
-2.13163e-14
1.22391e-12
2.35367e-12
2.26485e-12
3.71614e-12
4.03411e-12
4.47997e-12
4.36096e-12
6.02718e-12
6.84963e-12
6.10889e-12
6.84253e-12
6.52456e-12
5.24025e-12
6.70575e-12
5.05551e-12
5.1994e-12
6.8745e-12
7.36655e-12
6.1533e-12
5.9277e-12
4.25793e-12
4.21174e-12
5.80869e-12
4.68425e-12
4.57412e-12
6.07514e-12
5.95257e-12
7.27773e-12
7.2049e-12
7.73781e-12
6.4837e-12
4.21174e-12
2.27551e-12
8.11795e-13
-1.55254e-12
-5.57776e-13
9.37916e-13
9.00613e-13
1.52767e-12
1.9611e-12
3.30047e-12
4.44977e-12
4.16733e-12
4.31299e-12
6.36291e-12
8.28493e-12
8.42526e-12
8.05933e-12
6.38067e-12
8.45013e-12
8.896e-12
8.12506e-12
7.35234e-12
7.03793e-12
6.95799e-12
9.28857e-12
1.11093e-11
1.38556e-11
1.55644e-11
1.75806e-11
1.90763e-11
2.0739e-11
2.04547e-11
2.16787e-11
2.35207e-11
2.22631e-11
2.29079e-11
2.14833e-11
2.07621e-11
2.06413e-11
2.05205e-11
1.8451e-11
1.84706e-11
1.72466e-11
1.72911e-11
1.69731e-11
1.63087e-11
1.51914e-11
1.59481e-11
1.61275e-11
1.72182e-11
1.91562e-11
1.97922e-11
2.02363e-11
1.85363e-11
1.81952e-11
2.01545e-11
2.16822e-11
2.32205e-11
2.21974e-11
2.1787e-11
2.11262e-11
2.18243e-11
2.04441e-11
1.97478e-11
2.089e-11
2.04334e-11
2.05738e-11
2.30038e-11
2.47784e-11
2.33342e-11
2.35154e-11
2.34959e-11
2.35616e-11
2.51852e-11
2.68425e-11
2.71765e-11
2.92992e-11
3.07985e-11
3.09601e-11
3.18661e-11
3.309e-11
3.33422e-11
3.4035e-11
3.39035e-11
3.32232e-11
3.19229e-11
2.9857e-11
2.86988e-11
2.69438e-11
2.74891e-11
2.72173e-11
2.62297e-11
2.51141e-11
2.40021e-11
2.38245e-11
2.2732e-11
2.14158e-11
2.14992e-11
2.07656e-11
1.90497e-11
1.88418e-11
1.884e-11
1.91367e-11
1.89946e-11
2.05862e-11
)
;

boundaryField
{
    sides
    {
        type            calculated;
        value           nonuniform List<scalar> 2(2.02648e-11 2.78597e-11);
    }
    empty
    {
        type            empty;
        value           nonuniform 0();
    }
}


// ************************************************************************* //
