/*--------------------------------*- C++ -*----------------------------------*\
| =========                 |                                                 |
| \\      /  F ield         | OpenFOAM: The Open Source CFD Toolbox           |
|  \\    /   O peration     | Version:  4.1                                   |
|   \\  /    A nd           | Web:      www.OpenFOAM.org                      |
|    \\/     M anipulation  |                                                 |
\*---------------------------------------------------------------------------*/
FoamFile
{
    version     2.0;
    format      ascii;
    class       volScalarField;
    location    "0.0046";
    object      T;
}
// * * * * * * * * * * * * * * * * * * * * * * * * * * * * * * * * * * * * * //

dimensions      [0 0 0 1 0 0 0];

internalField   nonuniform List<scalar> 
1000
(
400
400
400
400
400
400
400
400
400
400
400
400
400
400
400
400
400
400
400
400
400
400
400
400
400
400
400
400
400
400
400
400
400
400
400
400
400
400
400
400
400
400
400
400
400
400
400
400
400
400
400
400
400
400
400
400
400
400
400
400
400
400
400
400
400
400
400
400
400
400
400
400
400
400
400
400
400
400
400
400
400
400
400
400
400
400
400
400
400
400
400
400
400
400
400
400
400
400
400
400
400
400
400
400
400
400
400
400
400
400
400
400
400
400
400
400
400
400
400
400
400
400
400
400
400
400
400
400
400
400
400
400
400
400
400
400
400
400
400
400
400
400
400
400
400
400
400
400
400
400
400
400
400
400
400
400
400
400
400
400
400
400
400
400
400
400
400
400
400
400
400
400
400
400
400
400
400
400
400
400
400
400
400
400
400
400
400
400
400
400
400
400
400
400
400
400
400
400
400
400
400
400
400
400
400
400
400
400
400
400
400
400
400
400
400
400
400
400
400
400
400
400
400
400
400
400
400
400
400
400
400
400
400
400
400
400
400
400
400
400
400
400
400
400
400
400
400
400
400
400
400
400
400
400
400
400
400
400
400
400
400
400
400
400
400
400
400
400
400
400
400
400
400
400
400
400
400
400
400
400
400
400
400
400
400
400
400
400
400
400
400
399.999
399.999
399.998
399.997
399.995
399.992
399.987
399.98
399.968
399.951
399.926
399.89
399.839
399.768
399.671
399.542
399.374
399.162
398.901
398.593
398.241
397.851
397.428
396.974
396.493
395.988
395.462
394.918
394.358
393.784
393.199
392.604
392
391.389
390.771
390.148
389.521
388.888
388.253
387.614
386.972
386.327
385.681
385.032
384.382
383.73
383.076
382.422
381.766
381.109
380.452
379.794
379.135
378.475
377.816
377.155
376.495
375.834
375.173
374.512
373.851
373.189
372.528
371.867
371.206
370.545
369.885
369.225
368.565
367.905
367.246
366.587
365.928
365.27
364.613
363.956
363.3
362.644
361.989
361.335
360.682
360.029
359.377
358.727
358.077
357.428
356.78
356.133
355.487
354.842
354.199
353.556
352.915
352.276
351.638
351.001
350.366
349.733
349.101
348.471
347.843
347.217
346.593
345.971
345.352
344.734
344.12
343.508
342.898
342.292
341.689
341.089
340.492
339.899
339.31
338.725
338.145
337.569
336.998
336.433
335.871
335.32
334.765
334.238
333.68
333.196
332.613
332.201
331.574
331.243
330.597
330.285
329.729
329.318
328.954
328.421
328.172
327.704
327.354
327.106
326.669
326.462
326.201
325.87
325.741
325.514
325.293
325.214
325.057
324.921
324.881
324.799
324.724
324.709
324.687
324.654
324.649
324.652
324.652
324.649
324.65
324.655
324.659
324.663
324.668
324.679
324.687
324.691
324.7
324.705
324.707
324.711
324.714
324.714
324.716
324.719
324.72
324.721
324.722
324.724
324.725
324.727
324.729
324.731
324.731
324.733
324.735
324.737
324.738
324.74
324.742
324.743
324.745
324.748
324.749
324.75
324.753
324.755
324.756
324.758
324.761
324.763
324.764
324.767
324.769
324.77
324.773
324.776
324.778
324.78
324.782
324.785
324.787
324.79
324.793
324.794
324.797
324.801
324.803
324.805
324.808
324.813
324.815
324.817
324.82
324.825
324.829
324.831
324.834
324.839
324.844
324.847
324.849
324.854
324.86
324.864
324.866
324.869
324.876
324.882
324.887
324.889
324.893
324.9
324.908
324.914
324.917
324.92
324.927
324.937
324.946
324.952
324.956
324.959
324.967
324.98
324.993
325.003
325.008
325.012
325.019
325.033
325.053
325.07
325.08
325.082
325.085
325.095
325.118
325.146
325.169
325.183
325.19
325.196
325.21
325.244
325.287
325.326
325.353
325.367
325.375
325.385
325.413
325.494
325.603
325.7
325.771
325.811
325.825
325.821
325.772
325.633
325.516
325.458
325.494
326.262
331.135
347.534
370.431
392.895
413.724
431.918
446.971
458.836
467.817
474.34
478.857
481.86
483.834
485.121
485.893
486.303
486.534
486.699
486.81
486.839
486.806
486.804
486.85
486.861
486.811
486.78
486.81
486.842
486.82
486.768
486.77
486.82
486.825
486.772
486.749
486.785
486.816
486.789
486.741
486.748
486.798
486.799
486.743
486.727
486.77
486.793
486.755
486.715
486.737
486.785
486.774
486.711
486.706
486.766
486.781
486.726
486.693
486.726
486.769
486.751
486.692
486.692
486.752
486.763
486.706
486.679
486.72
486.757
486.729
486.675
486.684
486.746
486.749
486.682
486.664
486.717
486.748
486.709
486.661
486.677
486.737
486.734
486.666
486.652
486.711
486.736
486.687
486.643
486.669
486.725
486.717
486.647
486.635
486.695
486.719
486.665
486.625
486.655
486.709
486.691
486.62
486.616
486.682
486.698
486.629
486.595
486.63
486.68
486.656
486.586
486.582
486.642
486.658
486.591
486.557
486.586
486.629
486.592
486.527
486.528
486.583
486.586
486.5
486.477
486.506
486.54
486.48
486.424
486.42
486.454
486.445
486.349
486.328
486.329
486.354
486.282
486.215
486.199
486.215
486.2
486.043
486.001
486.007
486.039
485.863
485.728
485.709
485.722
485.646
485.364
485.284
485.219
485.262
484.867
484.574
484.391
484.328
484.043
482.126
479.283
474.063
439.892
411.44
402.958
400.716
400.17
400.04
400.01
400.002
400.001
400
400
400
400
400
400
400
400
400
400
400
400
400
400
400
400
400
400
400
400
400
400
400
400
400
400
400
400
400
400
400
400
400
400
400
400
400
400
400
400
400
400
400
400
400
400
400
400
400
400
400
400
400
400
400
400
400
400
400
400
400
400
400
400
400
400
400
400
400
400
400
400
400
400
400
400
400
400
400
400
400
400
400
400
400
400
400
400
400
400
400
400
400
400
400
400
400
400
400
400
400
400
400
400
400
400
400
400
400
400
400
400
400
400
400
400
400
400
400
400
400
400
400
400
400
400
400
400
400
400
400
400
400
400
400
400
400
400
400
400
400
400
400
400
400
400
400
400
400
400
400
400
400
400
400
400
400
400
400
400
400
400
400
400
400
400
400
400
400
400
400
400
400
400
400
400
400
400
400
400
400
400
400
400
400
400
400
400
400
400
400
400
400
400
400
400
400
400
400
400
400
400
400
400
400
400
400
400
400
400
400
400
400
400
400
400
400
400
400
400
400
400
400
400
400
400
400
400
400
400
400
400
400
400
400
400
400
400
400
400
400
400
400
)
;

boundaryField
{
    sides
    {
        type            zeroGradient;
    }
    empty
    {
        type            empty;
    }
}


// ************************************************************************* //
