/*--------------------------------*- C++ -*----------------------------------*\
| =========                 |                                                 |
| \\      /  F ield         | OpenFOAM: The Open Source CFD Toolbox           |
|  \\    /   O peration     | Version:  4.1                                   |
|   \\  /    A nd           | Web:      www.OpenFOAM.org                      |
|    \\/     M anipulation  |                                                 |
\*---------------------------------------------------------------------------*/
FoamFile
{
    version     2.0;
    format      ascii;
    class       volVectorField;
    location    "0.0046";
    object      U;
}
// * * * * * * * * * * * * * * * * * * * * * * * * * * * * * * * * * * * * * //

dimensions      [0 1 -1 0 0 0 0];

internalField   nonuniform List<vector> 
1000
(
(-8.01517e-12 0 0)
(-7.51383e-12 0 0)
(-1.13189e-11 0 0)
(-7.65571e-12 0 0)
(-7.72312e-12 0 0)
(-7.17355e-12 0 0)
(-6.92479e-12 0 0)
(-8.2239e-12 0 0)
(-6.98672e-12 0 0)
(-7.70874e-12 0 0)
(-4.52451e-12 0 0)
(-6.10093e-12 0 0)
(-3.50996e-12 0 0)
(-7.06854e-12 0 0)
(-5.21416e-12 0 0)
(-6.58108e-12 0 0)
(-3.15418e-12 0 0)
(-6.41483e-12 0 0)
(-3.1713e-12 0 0)
(-4.48657e-12 0 0)
(-3.08391e-12 0 0)
(-4.46404e-12 0 0)
(-4.52945e-12 0 0)
(-5.83621e-12 0 0)
(-3.21892e-12 0 0)
(-8.43851e-12 0 0)
(-8.39876e-12 0 0)
(-1.20411e-11 0 0)
(-9.87286e-12 0 0)
(-8.20397e-12 0 0)
(-1.05357e-11 0 0)
(-9.52056e-12 0 0)
(-1.03855e-11 0 0)
(-9.66115e-12 0 0)
(-1.35212e-11 0 0)
(-1.06436e-11 0 0)
(-1.4584e-11 0 0)
(-1.10739e-11 0 0)
(-1.60383e-11 0 0)
(-1.26766e-11 0 0)
(-1.43287e-11 0 0)
(-9.36074e-12 0 0)
(-1.21746e-11 0 0)
(-7.1309e-12 0 0)
(-8.1154e-12 0 0)
(-3.62425e-12 0 0)
(-4.40029e-12 0 0)
(-5.29397e-12 0 0)
(-6.99779e-12 0 0)
(-4.62004e-12 0 0)
(-8.45465e-12 0 0)
(-7.83024e-12 0 0)
(-1.07271e-11 0 0)
(-1.21169e-11 0 0)
(-1.24556e-11 0 0)
(-1.61422e-11 0 0)
(-1.63435e-11 0 0)
(-1.89862e-11 0 0)
(-1.8407e-11 0 0)
(-2.13763e-11 0 0)
(-1.96386e-11 0 0)
(-2.21516e-11 0 0)
(-1.97039e-11 0 0)
(-2.10797e-11 0 0)
(-1.77157e-11 0 0)
(-1.98072e-11 0 0)
(-1.70999e-11 0 0)
(-1.86113e-11 0 0)
(-1.50228e-11 0 0)
(-1.79396e-11 0 0)
(-1.3113e-11 0 0)
(-1.67843e-11 0 0)
(-1.24404e-11 0 0)
(-1.50359e-11 0 0)
(-1.13129e-11 0 0)
(-1.50351e-11 0 0)
(-1.07854e-11 0 0)
(-1.14947e-11 0 0)
(-9.8484e-12 0 0)
(-8.88528e-12 0 0)
(-6.11934e-12 0 0)
(-5.61698e-12 0 0)
(-5.19269e-12 0 0)
(-5.35315e-12 0 0)
(-4.33441e-12 0 0)
(-2.07838e-12 0 0)
(-7.3508e-12 0 0)
(-7.5089e-13 0 0)
(-1.38962e-12 0 0)
(4.19226e-13 0 0)
(-3.0343e-12 0 0)
(4.55283e-12 0 0)
(1.20356e-12 0 0)
(4.73576e-12 0 0)
(4.16969e-12 0 0)
(5.59992e-12 0 0)
(3.65612e-12 0 0)
(6.57441e-12 0 0)
(6.24878e-12 0 0)
(6.98353e-12 0 0)
(5.27078e-12 0 0)
(5.33005e-12 0 0)
(8.63137e-12 0 0)
(7.88904e-12 0 0)
(1.04237e-11 0 0)
(1.11465e-11 0 0)
(1.10276e-11 0 0)
(1.01576e-11 0 0)
(9.24343e-12 0 0)
(1.19005e-11 0 0)
(9.75919e-12 0 0)
(9.98697e-12 0 0)
(9.6116e-12 0 0)
(7.01425e-12 0 0)
(8.16357e-12 0 0)
(8.80538e-12 0 0)
(1.09229e-11 0 0)
(1.16068e-11 0 0)
(1.15221e-11 0 0)
(1.15522e-11 0 0)
(1.13242e-11 0 0)
(1.2691e-11 0 0)
(1.27824e-11 0 0)
(1.43425e-11 0 0)
(1.56486e-11 0 0)
(1.51214e-11 0 0)
(1.38675e-11 0 0)
(1.6594e-11 0 0)
(1.35239e-11 0 0)
(1.52836e-11 0 0)
(1.21435e-11 0 0)
(1.2894e-11 0 0)
(1.44499e-11 0 0)
(1.36239e-11 0 0)
(1.6603e-11 0 0)
(1.58443e-11 0 0)
(1.45158e-11 0 0)
(1.52748e-11 0 0)
(1.51346e-11 0 0)
(1.46643e-11 0 0)
(1.53538e-11 0 0)
(1.72491e-11 0 0)
(1.78573e-11 0 0)
(1.83421e-11 0 0)
(1.71714e-11 0 0)
(1.59618e-11 0 0)
(1.55399e-11 0 0)
(1.30792e-11 0 0)
(1.43824e-11 0 0)
(1.33171e-11 0 0)
(1.42403e-11 0 0)
(1.27707e-11 0 0)
(1.44586e-11 0 0)
(1.12615e-11 0 0)
(1.5688e-11 0 0)
(1.42742e-11 0 0)
(1.38348e-11 0 0)
(1.2935e-11 0 0)
(1.22465e-11 0 0)
(1.44786e-11 0 0)
(1.33905e-11 0 0)
(1.17045e-11 0 0)
(1.12705e-11 0 0)
(1.05596e-11 0 0)
(9.17523e-12 0 0)
(9.92575e-12 0 0)
(7.6168e-12 0 0)
(6.52023e-12 0 0)
(7.89038e-12 0 0)
(8.6244e-12 0 0)
(8.94855e-12 0 0)
(6.0165e-12 0 0)
(4.54139e-12 0 0)
(6.05442e-12 0 0)
(5.16634e-12 0 0)
(8.05066e-12 0 0)
(5.23577e-12 0 0)
(8.39068e-12 0 0)
(7.01732e-12 0 0)
(1.02748e-11 0 0)
(6.45294e-12 0 0)
(8.36341e-12 0 0)
(9.32836e-12 0 0)
(7.93197e-12 0 0)
(9.02553e-12 0 0)
(1.15231e-11 0 0)
(1.0205e-11 0 0)
(1.18553e-11 0 0)
(1.12022e-11 0 0)
(1.3437e-11 0 0)
(1.54529e-11 0 0)
(1.04727e-11 0 0)
(1.23078e-11 0 0)
(9.52825e-12 0 0)
(1.24564e-11 0 0)
(1.04255e-11 0 0)
(1.28805e-11 0 0)
(8.87111e-12 0 0)
(1.14481e-11 0 0)
(6.91707e-12 0 0)
(1.1237e-11 0 0)
(6.56216e-12 0 0)
(1.09301e-11 0 0)
(1.05597e-11 0 0)
(1.21704e-11 0 0)
(1.03457e-11 0 0)
(1.32583e-11 0 0)
(1.35968e-11 0 0)
(1.51382e-11 0 0)
(1.39076e-11 0 0)
(1.0814e-11 0 0)
(9.906e-12 0 0)
(8.94285e-12 0 0)
(8.4038e-12 0 0)
(7.18592e-12 0 0)
(1.22984e-11 0 0)
(7.23778e-12 0 0)
(1.19028e-11 0 0)
(6.74194e-12 0 0)
(9.7489e-12 0 0)
(6.94456e-12 0 0)
(1.01674e-11 0 0)
(4.90281e-12 0 0)
(7.64269e-12 0 0)
(4.12526e-12 0 0)
(8.83621e-12 0 0)
(2.10042e-12 0 0)
(3.82754e-12 0 0)
(1.63767e-12 0 0)
(5.58496e-12 0 0)
(3.26365e-12 0 0)
(5.90387e-12 0 0)
(8.00501e-12 0 0)
(7.85943e-12 0 0)
(1.03765e-11 0 0)
(9.1627e-12 0 0)
(1.30737e-11 0 0)
(1.15603e-11 0 0)
(1.57685e-11 0 0)
(1.10991e-11 0 0)
(1.24251e-11 0 0)
(8.07043e-12 0 0)
(1.27684e-11 0 0)
(7.69563e-12 0 0)
(1.08191e-11 0 0)
(7.85591e-12 0 0)
(8.21581e-12 0 0)
(5.56874e-12 0 0)
(9.69879e-12 0 0)
(9.21271e-12 0 0)
(1.09531e-11 0 0)
(8.44783e-12 0 0)
(1.19124e-11 0 0)
(8.63139e-12 0 0)
(8.0659e-12 0 0)
(8.33475e-12 0 0)
(7.46831e-12 0 0)
(5.16615e-12 0 0)
(9.76445e-12 0 0)
(7.94366e-12 0 0)
(9.875e-12 0 0)
(9.44804e-12 0 0)
(1.26085e-11 0 0)
(1.77666e-11 0 0)
(2.92598e-11 0 0)
(5.70287e-11 0 0)
(1.14271e-10 0 0)
(2.41321e-10 0 0)
(5.08873e-10 0 0)
(1.07416e-09 0 0)
(2.24632e-09 0 0)
(4.66396e-09 0 0)
(9.59679e-09 0 0)
(1.95851e-08 0 0)
(3.96274e-08 0 0)
(7.95214e-08 0 0)
(1.58229e-07 0 0)
(3.12175e-07 0 0)
(6.106e-07 0 0)
(1.18391e-06 0 0)
(2.27518e-06 0 0)
(4.33305e-06 0 0)
(8.17673e-06 0 0)
(1.52864e-05 0 0)
(2.83071e-05 0 0)
(5.19124e-05 0 0)
(9.42648e-05 0 0)
(0.000169451 0 0)
(0.00030148 0 0)
(0.00053076 0 0)
(0.000924392 0 0)
(0.00159228 0 0)
(0.00271189 0 0)
(0.00456545 0 0)
(0.0075948 0 0)
(0.0124802 0 0)
(0.0202508 0 0)
(0.0324341 0 0)
(0.0512527 0 0)
(0.0798699 0 0)
(0.122683 0 0)
(0.185647 0 0)
(0.276592 0 0)
(0.405485 0 0)
(0.584534 0 0)
(0.828024 0 0)
(1.15174 0 0)
(1.57176 0 0)
(2.10237 0 0)
(2.75245 0 0)
(3.52101 0 0)
(4.39778 0 0)
(5.37032 0 0)
(6.42857 0 0)
(7.56414 0 0)
(8.76907 0 0)
(10.0356 0 0)
(11.3562 0 0)
(12.7239 0 0)
(14.1326 0 0)
(15.5767 0 0)
(17.0514 0 0)
(18.5526 0 0)
(20.0769 0 0)
(21.6213 0 0)
(23.1833 0 0)
(24.7609 0 0)
(26.3521 0 0)
(27.9556 0 0)
(29.5699 0 0)
(31.1941 0 0)
(32.827 0 0)
(34.468 0 0)
(36.1162 0 0)
(37.771 0 0)
(39.4319 0 0)
(41.0983 0 0)
(42.7698 0 0)
(44.446 0 0)
(46.1265 0 0)
(47.811 0 0)
(49.4993 0 0)
(51.191 0 0)
(52.8858 0 0)
(54.5836 0 0)
(56.2842 0 0)
(57.9873 0 0)
(59.6928 0 0)
(61.4004 0 0)
(63.1101 0 0)
(64.8217 0 0)
(66.535 0 0)
(68.25 0 0)
(69.9663 0 0)
(71.6841 0 0)
(73.403 0 0)
(75.1231 0 0)
(76.8441 0 0)
(78.5661 0 0)
(80.2888 0 0)
(82.0121 0 0)
(83.7361 0 0)
(85.4605 0 0)
(87.1852 0 0)
(88.9102 0 0)
(90.6354 0 0)
(92.3607 0 0)
(94.0859 0 0)
(95.8109 0 0)
(97.5357 0 0)
(99.2602 0 0)
(100.984 0 0)
(102.708 0 0)
(104.43 0 0)
(106.152 0 0)
(107.874 0 0)
(109.594 0 0)
(111.313 0 0)
(113.03 0 0)
(114.747 0 0)
(116.462 0 0)
(118.175 0 0)
(119.886 0 0)
(121.595 0 0)
(123.303 0 0)
(125.008 0 0)
(126.71 0 0)
(128.41 0 0)
(130.107 0 0)
(131.801 0 0)
(133.492 0 0)
(135.179 0 0)
(136.862 0 0)
(138.541 0 0)
(140.217 0 0)
(141.887 0 0)
(143.553 0 0)
(145.213 0 0)
(146.867 0 0)
(148.516 0 0)
(150.158 0 0)
(151.794 0 0)
(153.422 0 0)
(155.042 0 0)
(156.653 0 0)
(158.256 0 0)
(159.848 0 0)
(161.431 0 0)
(163.002 0 0)
(164.561 0 0)
(166.107 0 0)
(167.639 0 0)
(169.156 0 0)
(170.656 0 0)
(172.14 0 0)
(173.604 0 0)
(175.049 0 0)
(176.47 0 0)
(177.87 0 0)
(179.242 0 0)
(180.589 0 0)
(181.904 0 0)
(183.188 0 0)
(184.439 0 0)
(185.651 0 0)
(186.825 0 0)
(187.955 0 0)
(189.04 0 0)
(190.077 0 0)
(191.061 0 0)
(191.992 0 0)
(192.865 0 0)
(193.678 0 0)
(194.429 0 0)
(195.116 0 0)
(195.737 0 0)
(196.292 0 0)
(196.781 0 0)
(197.205 0 0)
(197.566 0 0)
(197.868 0 0)
(198.113 0 0)
(198.307 0 0)
(198.457 0 0)
(198.567 0 0)
(198.642 0 0)
(198.691 0 0)
(198.72 0 0)
(198.732 0 0)
(198.734 0 0)
(198.735 0 0)
(198.735 0 0)
(198.732 0 0)
(198.726 0 0)
(198.714 0 0)
(198.695 0 0)
(198.673 0 0)
(198.653 0 0)
(198.636 0 0)
(198.621 0 0)
(198.611 0 0)
(198.604 0 0)
(198.598 0 0)
(198.595 0 0)
(198.593 0 0)
(198.591 0 0)
(198.59 0 0)
(198.589 0 0)
(198.588 0 0)
(198.587 0 0)
(198.586 0 0)
(198.586 0 0)
(198.585 0 0)
(198.584 0 0)
(198.583 0 0)
(198.583 0 0)
(198.582 0 0)
(198.581 0 0)
(198.581 0 0)
(198.58 0 0)
(198.579 0 0)
(198.579 0 0)
(198.578 0 0)
(198.577 0 0)
(198.577 0 0)
(198.576 0 0)
(198.575 0 0)
(198.575 0 0)
(198.574 0 0)
(198.574 0 0)
(198.573 0 0)
(198.572 0 0)
(198.572 0 0)
(198.571 0 0)
(198.57 0 0)
(198.57 0 0)
(198.569 0 0)
(198.569 0 0)
(198.568 0 0)
(198.568 0 0)
(198.567 0 0)
(198.567 0 0)
(198.566 0 0)
(198.566 0 0)
(198.565 0 0)
(198.565 0 0)
(198.564 0 0)
(198.564 0 0)
(198.563 0 0)
(198.563 0 0)
(198.562 0 0)
(198.561 0 0)
(198.561 0 0)
(198.56 0 0)
(198.56 0 0)
(198.559 0 0)
(198.559 0 0)
(198.558 0 0)
(198.558 0 0)
(198.558 0 0)
(198.557 0 0)
(198.557 0 0)
(198.556 0 0)
(198.555 0 0)
(198.555 0 0)
(198.554 0 0)
(198.554 0 0)
(198.553 0 0)
(198.552 0 0)
(198.552 0 0)
(198.551 0 0)
(198.55 0 0)
(198.55 0 0)
(198.549 0 0)
(198.549 0 0)
(198.548 0 0)
(198.548 0 0)
(198.547 0 0)
(198.547 0 0)
(198.547 0 0)
(198.546 0 0)
(198.546 0 0)
(198.545 0 0)
(198.545 0 0)
(198.545 0 0)
(198.544 0 0)
(198.544 0 0)
(198.544 0 0)
(198.543 0 0)
(198.544 0 0)
(198.544 0 0)
(198.545 0 0)
(198.545 0 0)
(198.546 0 0)
(198.547 0 0)
(198.546 0 0)
(198.543 0 0)
(198.542 0 0)
(198.542 0 0)
(198.543 0 0)
(198.543 0 0)
(198.543 0 0)
(198.543 0 0)
(198.542 0 0)
(198.542 0 0)
(198.542 0 0)
(198.542 0 0)
(198.542 0 0)
(198.542 0 0)
(198.542 0 0)
(198.541 0 0)
(198.541 0 0)
(198.541 0 0)
(198.541 0 0)
(198.541 0 0)
(198.54 0 0)
(198.54 0 0)
(198.54 0 0)
(198.54 0 0)
(198.54 0 0)
(198.538 0 0)
(198.537 0 0)
(198.54 0 0)
(198.549 0 0)
(198.564 0 0)
(198.6 0 0)
(198.691 0 0)
(198.852 0 0)
(198.861 0 0)
(198.682 0 0)
(198.547 0 0)
(198.497 0 0)
(198.493 0 0)
(198.486 0 0)
(198.479 0 0)
(198.498 0 0)
(198.532 0 0)
(198.536 0 0)
(198.514 0 0)
(198.511 0 0)
(198.54 0 0)
(198.556 0 0)
(198.532 0 0)
(198.508 0 0)
(198.524 0 0)
(198.557 0 0)
(198.551 0 0)
(198.517 0 0)
(198.511 0 0)
(198.541 0 0)
(198.553 0 0)
(198.523 0 0)
(198.498 0 0)
(198.521 0 0)
(198.551 0 0)
(198.537 0 0)
(198.501 0 0)
(198.504 0 0)
(198.539 0 0)
(198.547 0 0)
(198.515 0 0)
(198.495 0 0)
(198.52 0 0)
(198.549 0 0)
(198.531 0 0)
(198.497 0 0)
(198.504 0 0)
(198.538 0 0)
(198.541 0 0)
(198.508 0 0)
(198.493 0 0)
(198.522 0 0)
(198.545 0 0)
(198.52 0 0)
(198.489 0 0)
(198.506 0 0)
(198.543 0 0)
(198.535 0 0)
(198.495 0 0)
(198.49 0 0)
(198.528 0 0)
(198.545 0 0)
(198.512 0 0)
(198.482 0 0)
(198.505 0 0)
(198.541 0 0)
(198.528 0 0)
(198.489 0 0)
(198.488 0 0)
(198.526 0 0)
(198.539 0 0)
(198.503 0 0)
(198.478 0 0)
(198.506 0 0)
(198.538 0 0)
(198.518 0 0)
(198.479 0 0)
(198.486 0 0)
(198.526 0 0)
(198.53 0 0)
(198.49 0 0)
(198.47 0 0)
(198.503 0 0)
(198.533 0 0)
(198.507 0 0)
(198.467 0 0)
(198.479 0 0)
(198.519 0 0)
(198.517 0 0)
(198.474 0 0)
(198.459 0 0)
(198.495 0 0)
(198.519 0 0)
(198.486 0 0)
(198.446 0 0)
(198.463 0 0)
(198.504 0 0)
(198.496 0 0)
(198.448 0 0)
(198.434 0 0)
(198.469 0 0)
(198.49 0 0)
(198.453 0 0)
(198.414 0 0)
(198.431 0 0)
(198.468 0 0)
(198.45 0 0)
(198.398 0 0)
(198.388 0 0)
(198.425 0 0)
(198.435 0 0)
(198.387 0 0)
(198.345 0 0)
(198.363 0 0)
(198.394 0 0)
(198.368 0 0)
(198.311 0 0)
(198.294 0 0)
(198.321 0 0)
(198.323 0 0)
(198.27 0 0)
(198.223 0 0)
(198.23 0 0)
(198.246 0 0)
(198.205 0 0)
(198.139 0 0)
(198.118 0 0)
(198.134 0 0)
(198.111 0 0)
(198.037 0 0)
(197.982 0 0)
(197.977 0 0)
(197.97 0 0)
(197.902 0 0)
(197.819 0 0)
(197.78 0 0)
(197.766 0 0)
(197.714 0 0)
(197.614 0 0)
(197.533 0 0)
(197.49 0 0)
(197.442 0 0)
(197.333 0 0)
(197.203 0 0)
(197.112 0 0)
(197.046 0 0)
(196.933 0 0)
(196.753 0 0)
(196.594 0 0)
(196.49 0 0)
(196.373 0 0)
(196.146 0 0)
(195.882 0 0)
(195.693 0 0)
(195.538 0 0)
(195.262 0 0)
(194.862 0 0)
(194.512 0 0)
(194.252 0 0)
(193.947 0 0)
(193.395 0 0)
(192.684 0 0)
(192.003 0 0)
(191.367 0 0)
(190.064 0 0)
(186.682 0 0)
(178.656 0 0)
(154.46 0 0)
(93.2897 0 0)
(30.3907 0 0)
(7.88298 0 0)
(1.91771 0 0)
(0.456804 0 0)
(0.1082 0 0)
(0.0255866 0 0)
(0.0060477 0 0)
(0.00142917 0 0)
(0.000337718 0 0)
(7.98023e-05 0 0)
(1.88567e-05 0 0)
(4.4556e-06 0 0)
(1.05277e-06 0 0)
(2.48739e-07 0 0)
(5.8768e-08 0 0)
(1.38826e-08 0 0)
(3.27793e-09 0 0)
(7.72081e-10 0 0)
(1.80183e-10 0 0)
(4.05109e-11 0 0)
(8.59148e-12 0 0)
(1.96496e-13 0 0)
(1.90901e-12 0 0)
(-3.69386e-12 0 0)
(-7.98921e-13 0 0)
(-4.5277e-12 0 0)
(-3.9335e-12 0 0)
(-4.35688e-12 0 0)
(-6.88281e-12 0 0)
(-4.22078e-12 0 0)
(-5.2824e-12 0 0)
(-7.11509e-12 0 0)
(-5.70538e-12 0 0)
(-9.29612e-12 0 0)
(-5.93837e-12 0 0)
(-1.07024e-11 0 0)
(-8.07606e-12 0 0)
(-1.06801e-11 0 0)
(-9.04566e-12 0 0)
(-1.06624e-11 0 0)
(-9.35091e-12 0 0)
(-9.18275e-12 0 0)
(-8.76822e-12 0 0)
(-6.87425e-12 0 0)
(-6.89825e-12 0 0)
(-1.75926e-12 0 0)
(-3.00206e-12 0 0)
(1.8552e-12 0 0)
(-1.60301e-12 0 0)
(1.76703e-12 0 0)
(1.04608e-12 0 0)
(1.39952e-12 0 0)
(-3.98474e-13 0 0)
(-8.27156e-14 0 0)
(-1.78913e-12 0 0)
(1.17562e-12 0 0)
(-1.21162e-12 0 0)
(3.24402e-12 0 0)
(1.39146e-12 0 0)
(7.20751e-12 0 0)
(5.61e-12 0 0)
(8.82931e-12 0 0)
(8.23698e-12 0 0)
(1.04409e-11 0 0)
(9.88838e-12 0 0)
(1.22691e-11 0 0)
(1.28283e-11 0 0)
(1.2626e-11 0 0)
(1.20494e-11 0 0)
(1.0372e-11 0 0)
(1.01742e-11 0 0)
(8.95689e-12 0 0)
(6.9288e-12 0 0)
(7.36489e-12 0 0)
(5.98669e-12 0 0)
(4.91816e-12 0 0)
(4.46379e-12 0 0)
(5.4158e-12 0 0)
(8.26024e-12 0 0)
(8.09149e-12 0 0)
(9.71551e-12 0 0)
(7.58819e-12 0 0)
(5.6051e-12 0 0)
(4.23333e-12 0 0)
(3.65693e-12 0 0)
(4.94732e-12 0 0)
(8.05794e-12 0 0)
(8.74563e-12 0 0)
(1.00346e-11 0 0)
(1.02319e-11 0 0)
(1.12382e-11 0 0)
(8.7421e-12 0 0)
(8.45702e-12 0 0)
(7.84047e-12 0 0)
(8.03014e-12 0 0)
(5.81951e-12 0 0)
(5.04314e-12 0 0)
(-4.02909e-13 0 0)
(3.9069e-12 0 0)
(6.60727e-13 0 0)
(9.90967e-13 0 0)
(5.37723e-13 0 0)
(-2.10634e-12 0 0)
(-6.56526e-13 0 0)
(-2.27617e-12 0 0)
(-1.76154e-12 0 0)
(1.18408e-12 0 0)
(2.26732e-12 0 0)
(1.49678e-12 0 0)
(2.89246e-12 0 0)
(-6.90243e-13 0 0)
(1.17741e-12 0 0)
(3.02765e-12 0 0)
(-4.20194e-13 0 0)
(4.04078e-13 0 0)
(2.79987e-12 0 0)
(2.05698e-12 0 0)
(3.59953e-12 0 0)
(4.41944e-12 0 0)
(5.31396e-12 0 0)
(4.59043e-12 0 0)
(6.19192e-12 0 0)
(7.25373e-12 0 0)
(8.13708e-12 0 0)
(6.3904e-12 0 0)
(8.75243e-12 0 0)
(6.10347e-12 0 0)
(6.49783e-12 0 0)
(8.16222e-12 0 0)
(4.28176e-12 0 0)
(7.19341e-12 0 0)
(8.76049e-12 0 0)
(7.89244e-12 0 0)
(6.92793e-12 0 0)
(6.01954e-12 0 0)
(3.59333e-12 0 0)
(6.64069e-12 0 0)
(6.72587e-12 0 0)
(3.8622e-12 0 0)
(6.58295e-12 0 0)
(7.05646e-12 0 0)
(7.06074e-12 0 0)
(9.32059e-12 0 0)
(8.04896e-12 0 0)
(8.84296e-12 0 0)
(5.7985e-12 0 0)
(4.002e-12 0 0)
(1.54644e-12 0 0)
(1.88808e-14 0 0)
(-3.26064e-12 0 0)
(1.73465e-12 0 0)
(9.61404e-13 0 0)
(5.75994e-13 0 0)
(3.00865e-12 0 0)
(1.8796e-12 0 0)
(5.61923e-12 0 0)
(5.1695e-12 0 0)
(3.4914e-12 0 0)
(7.22303e-12 0 0)
(7.4679e-12 0 0)
(1.09695e-11 0 0)
(9.19695e-12 0 0)
(8.55198e-12 0 0)
(6.93965e-12 0 0)
(1.15639e-11 0 0)
(9.54944e-12 0 0)
(8.72916e-12 0 0)
(8.58085e-12 0 0)
(7.13514e-12 0 0)
(9.63936e-12 0 0)
(1.10741e-11 0 0)
(1.47435e-11 0 0)
(1.67815e-11 0 0)
(1.97688e-11 0 0)
(2.00966e-11 0 0)
(2.36866e-11 0 0)
(2.32547e-11 0 0)
(2.48209e-11 0 0)
(2.51142e-11 0 0)
(2.75441e-11 0 0)
(2.54606e-11 0 0)
(2.60217e-11 0 0)
(2.38459e-11 0 0)
(2.43879e-11 0 0)
(2.33532e-11 0 0)
(2.25467e-11 0 0)
(2.15465e-11 0 0)
(2.02806e-11 0 0)
(1.93467e-11 0 0)
(1.9896e-11 0 0)
(1.95948e-11 0 0)
(1.79839e-11 0 0)
(1.7417e-11 0 0)
(1.85727e-11 0 0)
(1.86957e-11 0 0)
(2.1752e-11 0 0)
(2.12393e-11 0 0)
(2.41536e-11 0 0)
(2.20279e-11 0 0)
(2.14489e-11 0 0)
(2.0854e-11 0 0)
(2.55728e-11 0 0)
(2.51447e-11 0 0)
(2.64648e-11 0 0)
(2.54107e-11 0 0)
(2.46175e-11 0 0)
(2.44809e-11 0 0)
(2.47819e-11 0 0)
(2.24474e-11 0 0)
(2.33911e-11 0 0)
(2.4235e-11 0 0)
(2.30097e-11 0 0)
(2.51589e-11 0 0)
(2.71656e-11 0 0)
(2.83202e-11 0 0)
(2.6863e-11 0 0)
(2.68031e-11 0 0)
(2.69034e-11 0 0)
(2.8398e-11 0 0)
(2.89837e-11 0 0)
(3.20733e-11 0 0)
(3.14022e-11 0 0)
(3.57516e-11 0 0)
(3.54675e-11 0 0)
(3.63639e-11 0 0)
(3.60093e-11 0 0)
(3.95267e-11 0 0)
(3.83221e-11 0 0)
(3.95279e-11 0 0)
(3.83691e-11 0 0)
(3.78477e-11 0 0)
(3.58622e-11 0 0)
(3.34801e-11 0 0)
(3.18684e-11 0 0)
(3.10553e-11 0 0)
(3.18867e-11 0 0)
(3.0743e-11 0 0)
(2.98269e-11 0 0)
(2.74204e-11 0 0)
(2.79591e-11 0 0)
(2.70204e-11 0 0)
(2.53475e-11 0 0)
(2.39678e-11 0 0)
(2.57171e-11 0 0)
(2.09939e-11 0 0)
(2.35791e-11 0 0)
(2.00331e-11 0 0)
(2.36198e-11 0 0)
(2.00489e-11 0 0)
(2.37835e-11 0 0)
(2.33356e-11 0 0)
)
;

boundaryField
{
    sides
    {
        type            zeroGradient;
    }
    empty
    {
        type            empty;
    }
}


// ************************************************************************* //
