/*--------------------------------*- C++ -*----------------------------------*\
| =========                 |                                                 |
| \\      /  F ield         | OpenFOAM: The Open Source CFD Toolbox           |
|  \\    /   O peration     | Version:  4.1                                   |
|   \\  /    A nd           | Web:      www.OpenFOAM.org                      |
|    \\/     M anipulation  |                                                 |
\*---------------------------------------------------------------------------*/
FoamFile
{
    version     2.0;
    format      ascii;
    class       volScalarField;
    location    "0.005";
    object      mag(U);
}
// * * * * * * * * * * * * * * * * * * * * * * * * * * * * * * * * * * * * * //

dimensions      [0 1 -1 0 0 0 0];

internalField   nonuniform List<scalar> 
1000
(
7.40203e-12
3.40135e-12
5.1541e-12
4.4889e-14
1.16187e-12
2.72085e-12
1.38667e-12
1.21709e-12
9.16703e-13
2.97253e-12
1.05e-12
3.12483e-12
1.21533e-12
2.90651e-12
1.54917e-12
1.97543e-12
1.45496e-12
4.07481e-12
1.01301e-12
4.35915e-12
3.80761e-12
5.93933e-12
6.22252e-12
6.16913e-12
4.78527e-12
7.7983e-12
7.334e-12
1.07363e-11
8.62529e-12
6.60503e-12
7.65176e-12
7.91808e-12
9.49095e-12
6.92002e-12
1.17239e-11
9.75509e-12
1.43488e-11
1.28748e-11
1.8558e-11
1.59409e-11
2.11121e-11
2.06198e-11
2.24227e-11
1.91451e-11
2.39032e-11
2.13556e-11
2.32917e-11
2.21541e-11
2.37973e-11
2.11943e-11
2.3576e-11
1.99699e-11
1.94283e-11
1.87466e-11
1.54669e-11
1.6373e-11
1.61326e-11
1.56217e-11
1.35626e-11
1.71256e-11
1.31181e-11
1.56671e-11
1.44828e-11
1.52281e-11
1.26637e-11
1.49454e-11
1.09293e-11
1.54541e-11
1.32097e-11
1.58541e-11
1.03053e-11
1.27278e-11
7.41873e-12
1.01604e-11
5.95813e-12
8.14182e-12
4.13417e-12
5.76064e-12
5.94824e-12
6.55591e-12
8.36178e-12
1.1446e-11
1.0406e-11
1.02297e-11
9.43671e-12
5.3745e-12
6.71556e-12
5.15065e-12
7.35748e-12
2.7647e-12
5.40012e-12
1.98566e-13
3.43066e-13
6.65576e-12
1.97501e-12
5.96775e-12
4.67288e-12
4.83943e-12
4.71658e-12
8.09539e-12
7.74748e-12
6.4974e-12
9.23217e-12
8.91599e-12
1.13931e-11
9.65597e-12
6.21165e-12
7.56671e-12
7.56402e-12
8.82913e-12
9.55819e-12
9.01748e-12
8.70553e-12
7.87181e-12
1.06705e-11
1.15819e-11
1.16797e-11
1.1386e-11
1.32903e-11
1.34312e-11
1.44189e-11
1.4193e-11
1.26118e-11
1.55983e-11
1.57139e-11
1.65682e-11
1.64131e-11
1.78161e-11
1.5477e-11
1.71253e-11
1.30513e-11
1.3301e-11
1.56354e-11
1.61613e-11
1.84096e-11
1.8157e-11
1.74097e-11
1.70731e-11
1.54446e-11
1.587e-11
1.57256e-11
1.5643e-11
1.49067e-11
1.66456e-11
1.8717e-11
2.00246e-11
2.15683e-11
1.8105e-11
2.03153e-11
2.04327e-11
2.12367e-11
1.91579e-11
2.11097e-11
1.78366e-11
2.06763e-11
1.83387e-11
1.65477e-11
1.48875e-11
1.24793e-11
1.22646e-11
1.13877e-11
1.03833e-11
9.3531e-12
8.5366e-12
8.05001e-12
9.39641e-12
8.99511e-12
7.96392e-12
7.16699e-12
7.8959e-12
8.75764e-12
9.99869e-12
1.0915e-11
1.21064e-11
1.1058e-11
1.32935e-11
1.26699e-11
1.75788e-11
1.53154e-11
1.69479e-11
1.40611e-11
1.44306e-11
1.37057e-11
1.31133e-11
1.27886e-11
1.1608e-11
1.00027e-11
1.1403e-11
8.39739e-12
8.72808e-12
9.18946e-12
7.02684e-12
1.11685e-11
9.59074e-12
1.37841e-11
1.22278e-11
1.61605e-11
1.29544e-11
1.67025e-11
1.14477e-11
1.39977e-11
9.04457e-12
1.22828e-11
1.1074e-11
1.18303e-11
9.60078e-12
1.24575e-11
1.08757e-11
1.11141e-11
1.1789e-11
1.26695e-11
1.2654e-11
1.09759e-11
1.21061e-11
1.0159e-11
1.42167e-11
8.29849e-12
1.08554e-11
4.81863e-12
1.04031e-11
7.55284e-12
9.97084e-12
7.90771e-12
1.18672e-11
6.43536e-12
1.23888e-11
9.04415e-12
1.06295e-11
6.48091e-12
8.90373e-12
8.06357e-12
9.15423e-12
1.13424e-11
1.03011e-11
9.36637e-12
9.11453e-12
1.22877e-11
9.47939e-12
1.34569e-11
7.44229e-12
1.00549e-11
4.49239e-12
8.2664e-12
6.23092e-12
1.07081e-11
1.22506e-11
2.36003e-11
3.92862e-11
8.02958e-11
1.57696e-10
3.24358e-10
6.6171e-10
1.36114e-09
2.77804e-09
5.63688e-09
1.1348e-08
2.26707e-08
4.49255e-08
8.83272e-08
1.72268e-07
3.33276e-07
6.39494e-07
1.21689e-06
2.29611e-06
4.29537e-06
7.96556e-06
1.4641e-05
2.66685e-05
4.81311e-05
8.60549e-05
0.000152394
0.000267249
0.000464015
0.000797477
0.00135635
0.00228238
0.0037988
0.00625207
0.0101715
0.0163527
0.0259703
0.040727
0.0630415
0.0962751
0.144989
0.215213
0.314684
0.453005
0.641635
0.893614
1.2229
1.64314
2.16567
2.79617
3.5314
4.36127
5.27495
6.26377
7.32039
8.43787
9.60945
10.8287
12.0897
13.3871
14.7161
16.0726
17.4531
18.8544
20.274
21.7097
23.1595
24.622
26.0958
27.5796
29.0725
30.5736
32.0821
33.5974
35.1189
36.646
38.1783
39.7155
41.257
42.8027
44.3522
45.9052
47.4615
49.0209
50.5831
52.148
53.7153
55.285
56.8569
58.4308
60.0066
61.5841
63.1633
64.7441
66.3263
67.9097
69.4945
71.0803
72.6672
74.2551
75.8438
77.4333
79.0234
80.6142
82.2056
83.7974
85.3896
86.9821
88.5748
90.1677
91.7607
93.3537
94.9467
96.5395
98.132
99.7243
101.316
102.908
104.499
106.089
107.679
109.267
110.855
112.442
114.028
115.613
117.196
118.778
120.359
121.938
123.515
125.091
126.664
128.236
129.805
131.371
132.935
134.497
136.055
137.611
139.162
140.711
142.256
143.796
145.332
146.864
148.391
149.913
151.429
152.939
154.443
155.941
157.431
158.913
160.387
161.853
163.309
164.755
166.19
167.614
169.025
170.423
171.807
173.175
174.527
175.861
177.176
178.47
179.742
180.99
182.213
183.407
184.572
185.706
186.804
187.867
188.89
189.872
190.809
191.699
192.54
193.33
194.064
194.744
195.365
195.928
196.433
196.878
197.266
197.599
197.878
198.107
198.292
198.434
198.541
198.618
198.668
198.7
198.716
198.721
198.721
198.722
198.721
198.717
198.709
198.694
198.676
198.658
198.641
198.626
198.615
198.607
198.602
198.597
198.595
198.593
198.591
198.59
198.589
198.588
198.588
198.587
198.587
198.586
198.585
198.584
198.583
198.582
198.582
198.581
198.581
198.58
198.58
198.579
198.578
198.578
198.577
198.576
198.576
198.575
198.575
198.574
198.574
198.573
198.572
198.572
198.571
198.571
198.57
198.569
198.569
198.568
198.568
198.567
198.567
198.566
198.566
198.565
198.565
198.564
198.564
198.563
198.563
198.562
198.562
198.561
198.561
198.56
198.56
198.559
198.558
198.558
198.557
198.557
198.556
198.556
198.555
198.555
198.554
198.554
198.553
198.553
198.553
198.552
198.552
198.552
198.551
198.551
198.551
198.55
198.55
198.55
198.549
198.549
198.549
198.549
198.549
198.549
198.548
198.548
198.548
198.548
198.548
198.547
198.547
198.547
198.547
198.546
198.546
198.546
198.545
198.545
198.545
198.544
198.544
198.544
198.543
198.543
198.543
198.543
198.542
198.542
198.542
198.541
198.541
198.541
198.54
198.54
198.54
198.54
198.54
198.54
198.539
198.539
198.539
198.539
198.54
198.54
198.54
198.539
198.538
198.538
198.537
198.535
198.534
198.534
198.538
198.55
198.577
198.625
198.726
198.859
198.82
198.639
198.538
198.505
198.485
198.473
198.489
198.521
198.532
198.517
198.512
198.537
198.554
198.534
198.511
198.524
198.552
198.549
198.52
198.514
198.543
198.555
198.525
198.501
198.524
198.553
198.535
198.501
198.507
198.543
198.549
198.514
198.497
198.526
198.553
198.532
198.499
198.508
198.542
198.545
198.511
198.497
198.526
198.549
198.524
198.494
198.511
198.546
198.539
198.502
198.495
198.53
198.549
198.519
198.49
198.509
198.543
198.534
198.497
198.494
198.53
198.544
198.511
198.485
198.511
198.543
198.527
198.489
198.493
198.53
198.538
198.503
198.482
198.51
198.539
198.519
198.482
198.491
198.529
198.53
198.491
198.477
198.511
198.534
198.503
198.469
198.49
198.529
198.517
198.473
198.468
198.507
198.524
198.487
198.455
198.48
198.516
198.498
198.454
198.453
198.492
198.501
198.459
198.431
198.459
198.491
198.463
198.416
198.422
198.462
198.46
198.41
198.384
198.414
198.439
198.401
198.351
198.357
198.393
198.38
198.321
198.294
198.322
198.336
198.286
198.23
198.231
198.256
198.229
198.161
198.127
198.141
198.137
198.072
198.008
197.996
197.999
197.947
197.863
197.815
197.803
197.769
197.679
197.593
197.546
197.512
197.429
197.307
197.215
197.156
197.073
196.917
196.76
196.655
196.558
196.372
196.132
195.95
195.82
195.613
195.266
194.934
194.708
194.473
193.994
193.411
193.007
192.661
191.876
190.432
188.168
183.821
172.021
130.138
58.6692
16.1977
4.08025
0.981714
0.233176
0.0551804
0.0130463
0.00308409
0.000729053
0.000172342
4.07386e-05
9.62959e-06
2.27611e-06
5.37979e-07
1.27149e-07
3.00518e-08
7.10109e-09
1.67947e-09
3.97345e-10
9.43635e-11
2.22827e-11
4.19894e-12
1.29877e-12
1.13407e-12
6.59935e-13
2.43306e-12
9.10002e-13
2.86403e-12
2.48391e-12
1.31649e-12
5.86122e-12
2.55831e-12
7.47004e-12
5.68441e-12
9.70506e-12
7.44954e-12
1.00779e-11
8.50544e-12
1.07389e-11
8.08434e-12
7.5594e-12
6.83285e-12
8.77396e-12
7.88431e-12
8.45368e-12
9.74763e-12
1.21309e-11
1.0638e-11
1.062e-11
9.35649e-12
7.63912e-12
5.82067e-12
5.64801e-12
5.06894e-12
6.29307e-12
7.86527e-12
6.5068e-12
6.1876e-12
5.25374e-12
8.44074e-12
9.78645e-12
7.384e-12
5.06952e-12
4.82504e-12
4.68161e-12
5.32294e-12
5.53341e-12
4.38937e-12
2.83612e-12
3.68984e-12
4.35864e-12
6.66802e-12
6.13941e-12
7.94587e-12
5.55584e-12
6.97071e-12
6.07278e-12
7.95048e-12
4.53378e-12
3.03394e-12
3.41453e-12
3.5846e-12
4.65288e-12
1.47958e-12
2.6539e-12
3.42162e-12
3.69434e-13
1.79453e-12
2.01968e-12
3.42147e-13
3.0347e-12
1.54683e-12
4.27117e-13
2.12882e-12
5.3506e-12
3.89689e-12
4.17205e-12
3.74704e-12
1.79223e-12
3.45431e-13
5.34842e-12
2.09193e-12
3.64113e-12
7.87136e-14
2.56358e-12
3.75149e-12
2.61438e-12
4.75827e-12
4.3889e-12
6.82176e-12
5.26893e-12
5.70568e-12
5.89833e-12
5.29092e-12
6.64472e-12
6.04608e-12
7.43166e-12
8.20728e-12
1.11208e-11
1.22192e-11
1.25257e-11
1.38324e-11
1.15282e-11
1.20027e-11
1.0436e-11
1.09223e-11
9.50393e-12
1.24732e-11
1.09321e-11
1.18207e-11
1.18318e-11
1.12111e-11
1.04677e-11
1.11102e-11
1.15779e-11
1.40966e-11
1.42497e-11
1.63466e-11
1.5466e-11
1.54118e-11
1.67185e-11
1.94052e-11
1.75905e-11
1.98673e-11
2.16602e-11
2.1591e-11
2.34625e-11
2.34331e-11
2.27563e-11
2.24101e-11
2.40004e-11
2.2658e-11
2.26765e-11
1.96391e-11
1.9484e-11
1.897e-11
2.02163e-11
1.70365e-11
2.06904e-11
1.93042e-11
1.88501e-11
1.62205e-11
1.70892e-11
1.68539e-11
1.95953e-11
1.98796e-11
1.91344e-11
2.00164e-11
2.10813e-11
2.1222e-11
1.90962e-11
2.02808e-11
2.18682e-11
2.18399e-11
2.40588e-11
2.20175e-11
2.49707e-11
2.39764e-11
2.42033e-11
2.30192e-11
2.61037e-11
2.4499e-11
2.58567e-11
2.60703e-11
2.48838e-11
2.43185e-11
2.4796e-11
2.42e-11
2.59051e-11
2.86872e-11
3.05035e-11
3.18793e-11
3.27328e-11
3.55704e-11
3.63415e-11
3.50777e-11
3.30479e-11
3.34945e-11
3.05676e-11
3.18146e-11
3.182e-11
3.24497e-11
3.05432e-11
3.20292e-11
2.96573e-11
3.22457e-11
3.15827e-11
3.32777e-11
3.32496e-11
3.22845e-11
3.20861e-11
3.23896e-11
3.22018e-11
3.22131e-11
3.46658e-11
3.49965e-11
3.55188e-11
3.71942e-11
4.01648e-11
4.12411e-11
4.08578e-11
3.85766e-11
3.91658e-11
3.4966e-11
3.66407e-11
3.20155e-11
3.39563e-11
2.87092e-11
3.13176e-11
2.68482e-11
)
;

boundaryField
{
    sides
    {
        type            calculated;
        value           nonuniform List<scalar> 2(2.68482e-11 7.40203e-12);
    }
    empty
    {
        type            empty;
    }
}


// ************************************************************************* //
