/*--------------------------------*- C++ -*----------------------------------*\
| =========                 |                                                 |
| \\      /  F ield         | OpenFOAM: The Open Source CFD Toolbox           |
|  \\    /   O peration     | Version:  4.1                                   |
|   \\  /    A nd           | Web:      www.OpenFOAM.org                      |
|    \\/     M anipulation  |                                                 |
\*---------------------------------------------------------------------------*/
FoamFile
{
    version     2.0;
    format      ascii;
    class       volScalarField;
    location    "0.005";
    object      p;
}
// * * * * * * * * * * * * * * * * * * * * * * * * * * * * * * * * * * * * * //

dimensions      [1 -1 -2 0 0 0 0];

internalField   nonuniform List<scalar> 
1000
(
100000
100000
100000
100000
100000
100000
100000
100000
100000
100000
100000
100000
100000
100000
100000
100000
100000
100000
100000
100000
100000
100000
100000
100000
100000
100000
100000
100000
100000
100000
100000
100000
100000
100000
100000
100000
100000
100000
100000
100000
100000
100000
100000
100000
100000
100000
100000
100000
100000
100000
100000
100000
100000
100000
100000
100000
100000
100000
100000
100000
100000
100000
100000
100000
100000
100000
100000
100000
100000
100000
100000
100000
100000
100000
100000
100000
100000
100000
100000
100000
100000
100000
100000
100000
100000
100000
100000
100000
100000
100000
100000
100000
100000
100000
100000
100000
100000
100000
100000
100000
100000
100000
100000
100000
100000
100000
100000
100000
100000
100000
100000
100000
100000
100000
100000
100000
100000
100000
100000
100000
100000
100000
100000
100000
100000
100000
100000
100000
100000
100000
100000
100000
100000
100000
100000
100000
100000
100000
100000
100000
100000
100000
100000
100000
100000
100000
100000
100000
100000
100000
100000
100000
100000
100000
100000
100000
100000
100000
100000
100000
100000
100000
100000
100000
100000
100000
100000
100000
100000
100000
100000
100000
100000
100000
100000
100000
100000
100000
100000
100000
100000
100000
100000
100000
100000
100000
100000
100000
100000
100000
100000
100000
100000
100000
100000
100000
100000
100000
100000
100000
100000
100000
100000
100000
100000
100000
100000
100000
100000
100000
100000
100000
100000
100000
100000
100000
100000
100000
100000
100000
100000
100000
100000
100000
100000
100000
100000
100000
100000
100000
100000
100000
100000
100000
100000
100000
100000
100000
100000
100000
100000
100000
100000
100000
100000
100000
100000
100000
100000
100000
100000
100000
100000
100000
100000
100000
100000
100000
100000
100000
100000
100000
100000
100000
100000
100000
100000
100000
100000
100000
99999.9
99999.9
99999.8
99999.7
99999.5
99999.2
99998.7
99997.8
99996.5
99994.4
99991
99985.9
99978.2
99966.7
99949.8
99925.5
99891
99843
99777.5
99689.9
99575.5
99429.4
99247.7
99028.2
98772.4
98484.6
98168.8
97828.3
97465.8
97083.7
96684.7
96271
95844.9
95408.3
94962.9
94510.2
94051.6
93588
93120.4
92649.7
92176.5
91701.2
91224.6
90746.8
90268.4
89789.5
89310.5
88831.7
88353.1
87875
87397.6
86920.9
86445.1
85970.3
85496.6
85024.2
84553
84083.1
83614.6
83147.6
82682.2
82218.3
81756
81295.3
80836.4
80379.2
79923.7
79470
79018.1
78568.1
78119.9
77673.6
77229.3
76786.8
76346.3
75907.7
75471.1
75036.5
74603.9
74173.3
73744.8
73318.3
72893.8
72471.4
72051.1
71632.9
71216.8
70802.7
70390.8
69981.1
69573.4
69168
68764.6
68363.5
67964.5
67567.8
67173.2
66780.8
66390.7
66002.8
65617.1
65233.7
64852.6
64473.8
64097.3
63723.1
63351.2
62981.7
62614.5
62249.8
61887.5
61527.6
61170.1
60815.2
60462.8
60112.9
59765.6
59420.9
59078.9
58739.5
58402.9
58069.1
57738.1
57410
57084.8
56762.7
56443.6
56127.7
55815.1
55505.7
55199.9
54897.5
54598.8
54303.8
54012.8
53725.8
53443
53164.6
52890.8
52621.7
52357.7
52098.7
51845.6
51597.8
51356.4
51121.1
50892.7
50671.2
50457.1
50251.1
50052.9
49863.7
49683.3
49512.4
49351.5
49200.7
49060.6
48931.3
48813
48706
48610.3
48525.6
48452
48388.7
48335.5
48292.1
48256.8
48229.3
48208.9
48194
48184
48177.7
48174.5
48173.3
48173.4
48173.5
48173.8
48174.4
48175.5
48177.9
48181.2
48184.6
48187.7
48190.3
48192.4
48194
48195.1
48195.9
48196.5
48196.8
48197
48197.2
48197.3
48197.5
48197.6
48197.8
48197.9
48198
48198.1
48198.2
48198.3
48198.4
48198.5
48198.6
48198.7
48198.8
48198.9
48199
48199.1
48199.2
48199.3
48199.3
48199.4
48199.5
48199.6
48199.7
48199.8
48199.9
48200
48200
48200.1
48200.2
48200.3
48200.4
48200.4
48200.5
48200.6
48200.7
48200.7
48200.8
48200.9
48201
48201.1
48201.1
48201.2
48201.3
48201.3
48201.4
48201.5
48201.5
48201.6
48201.7
48201.7
48201.8
48201.9
48201.9
48202
48202.1
48202.2
48202.2
48202.3
48202.4
48202.4
48202.5
48202.6
48202.6
48202.7
48202.7
48202.7
48202.8
48202.8
48202.8
48202.9
48202.9
48202.9
48202.9
48203
48203
48203
48203.1
48203.1
48203.1
48203.1
48203.1
48203.1
48203.1
48203.1
48203.1
48203.1
48203.1
48203
48203
48203
48202.9
48202.9
48202.9
48202.9
48202.8
48202.8
48202.8
48202.8
48202.8
48202.8
48202.8
48202.8
48202.8
48202.8
48202.8
48202.8
48202.9
48202.9
48202.9
48202.9
48203
48203
48203.1
48203.1
48203.1
48203.1
48203
48202.9
48203
48203.1
48203.1
48203.2
48203.6
48203.7
48203.3
48203.6
48205
48205.2
48202.9
48203.7
48206.8
48213.9
48222.3
48189.2
48186.4
48200.5
48208.2
48205.8
48197.6
48201.5
48210.8
48210
48197.8
48196.2
48208.7
48213.2
48201.8
48194
48201.7
48213.4
48210.1
48195.1
48194.8
48210.9
48213.9
48198.2
48191.5
48205
48215.7
48206.2
48191.5
48196.5
48213.8
48213.8
48195.9
48191.5
48207.2
48216.2
48204.9
48191.4
48197.5
48214
48212.9
48195.1
48192.1
48208.3
48215.6
48202.1
48190.6
48200.4
48215.7
48210.8
48192.2
48192.3
48211
48215.8
48199.9
48190.3
48201.5
48215
48209
48191.8
48193.3
48211.9
48214.8
48196.9
48189.7
48204.1
48215.4
48205.9
48190.6
48194.6
48212.4
48213.4
48195.1
48189.6
48205.4
48215.2
48203.3
48189.4
48195.9
48213.3
48211.5
48192
48189.5
48208.3
48215.1
48198.3
48187
48199.4
48214.8
48207.8
48188.2
48189.3
48210.2
48214.2
48194.4
48185.4
48200
48213.7
48204.2
48185.8
48188.9
48209.6
48211.2
48189.6
48182.8
48200.4
48211.9
48197.5
48181
48187.4
48207.8
48206
48182.3
48177.7
48197.2
48206.9
48188.8
48173.6
48182
48201.3
48196.1
48171.3
48168.4
48188.7
48196.1
48173.8
48160.4
48168.8
48186.2
48178.1
48153.9
48151.5
48168.5
48173.5
48148.3
48137.1
48144
48157.9
48143.4
48120.8
48118.1
48129.7
48131.5
48102.8
48092.1
48091.8
48100.2
48083.5
48055.3
48049.1
48051.6
48052.3
48009.6
47992.9
47990.3
47998.5
47960
47913
47901.1
47905.2
47893.1
47801.2
47769.1
47761.3
47773
47667.1
47573.3
47544
47539.5
47481.9
47187.3
46912.9
46389.8
45025.5
40036
29727.9
26341.4
25333.3
25079.9
25019
25004.5
25001.1
25000.3
25000.1
25000
25000
25000
25000
25000
25000
25000
25000
25000
25000
25000
25000
25000
25000
25000
25000
25000
25000
25000
25000
25000
25000
25000
25000
25000
25000
25000
25000
25000
25000
25000
25000
25000
25000
25000
25000
25000
25000
25000
25000
25000
25000
25000
25000
25000
25000
25000
25000
25000
25000
25000
25000
25000
25000
25000
25000
25000
25000
25000
25000
25000
25000
25000
25000
25000
25000
25000
25000
25000
25000
25000
25000
25000
25000
25000
25000
25000
25000
25000
25000
25000
25000
25000
25000
25000
25000
25000
25000
25000
25000
25000
25000
25000
25000
25000
25000
25000
25000
25000
25000
25000
25000
25000
25000
25000
25000
25000
25000
25000
25000
25000
25000
25000
25000
25000
25000
25000
25000
25000
25000
25000
25000
25000
25000
25000
25000
25000
25000
25000
25000
25000
25000
25000
25000
25000
25000
25000
25000
25000
25000
25000
25000
25000
25000
25000
25000
25000
25000
25000
25000
25000
25000
25000
25000
25000
25000
25000
25000
25000
25000
25000
25000
25000
25000
25000
25000
25000
25000
25000
25000
25000
25000
25000
25000
25000
25000
25000
25000
25000
25000
25000
25000
25000
25000
25000
25000
25000
25000
25000
25000
25000
25000
25000
25000
25000
25000
25000
25000
25000
25000
25000
25000
25000
25000
25000
25000
25000
25000
25000
25000
25000
25000
25000
25000
25000
25000
25000
25000
25000
25000
25000
)
;

boundaryField
{
    sides
    {
        type            zeroGradient;
    }
    empty
    {
        type            empty;
    }
}


// ************************************************************************* //
