/*--------------------------------*- C++ -*----------------------------------*\
| =========                 |                                                 |
| \\      /  F ield         | OpenFOAM: The Open Source CFD Toolbox           |
|  \\    /   O peration     | Version:  4.1                                   |
|   \\  /    A nd           | Web:      www.OpenFOAM.org                      |
|    \\/     M anipulation  |                                                 |
\*---------------------------------------------------------------------------*/
FoamFile
{
    version     2.0;
    format      ascii;
    class       surfaceScalarField;
    location    "0.005";
    object      phi;
}
// * * * * * * * * * * * * * * * * * * * * * * * * * * * * * * * * * * * * * //

dimensions      [1 0 -1 0 0 0 0];

internalField   nonuniform List<scalar> 
999
(
-1.80265e-11
-1.44809e-11
-1.00755e-11
-1.68399e-12
-7.65255e-12
-6.75016e-12
-3.85114e-12
-4.07141e-12
-7.65965e-12
-6.38778e-12
-7.36122e-12
-3.26139e-12
-2.72138e-12
-2.79954e-12
-4.68958e-13
-6.89226e-12
-9.57812e-12
-8.29914e-12
-1.02531e-11
-1.4154e-11
-1.53335e-11
-2.25455e-11
-2.20766e-11
-1.96536e-11
-2.15081e-11
-2.49258e-11
-3.29194e-11
-3.27773e-11
-2.70859e-11
-2.50822e-11
-2.74412e-11
-2.95017e-11
-2.92673e-11
-3.10649e-11
-3.91509e-11
-3.99609e-11
-4.73932e-11
-5.64313e-11
-5.99769e-11
-6.29043e-11
-7.29017e-11
-7.76197e-11
-6.91216e-11
-7.62981e-11
-7.92753e-11
-7.89626e-11
-7.78684e-11
-7.80886e-11
-8.02984e-11
-7.68878e-11
-7.6156e-11
-6.77858e-11
-6.71321e-11
-5.90461e-11
-5.46621e-11
-5.61187e-11
-5.62608e-11
-5.02922e-11
-5.39515e-11
-5.40155e-11
-4.81322e-11
-5.30775e-11
-5.30136e-11
-4.64482e-11
-5.01217e-11
-4.34639e-11
-4.49774e-11
-5.04272e-11
-5.19762e-11
-4.46576e-11
-4.04796e-11
-3.49019e-11
-2.9317e-11
-2.85141e-11
-2.61053e-11
-1.98597e-11
-1.61933e-11
-2.2105e-11
-2.09468e-11
-2.56009e-11
-3.35092e-11
-4.00178e-11
-3.55627e-11
-3.3431e-11
-2.52811e-11
-2.14087e-11
-1.98668e-11
-2.32632e-11
-1.60085e-11
-1.60014e-11
-8.54072e-12
-1.06581e-12
1.01537e-11
1.68541e-11
1.24487e-11
1.89857e-11
1.70033e-11
1.64064e-11
2.20766e-11
2.8443e-11
2.38245e-11
2.88622e-11
2.97788e-11
3.68772e-11
3.58753e-11
2.77467e-11
2.34479e-11
2.56506e-11
2.94662e-11
3.09015e-11
3.38929e-11
3.12212e-11
2.79812e-11
3.05818e-11
4.03659e-11
4.0437e-11
3.95701e-11
4.2526e-11
4.69171e-11
4.69029e-11
5.22959e-11
4.49276e-11
4.93188e-11
5.41505e-11
5.76108e-11
5.46478e-11
6.17675e-11
5.79519e-11
5.75682e-11
5.21112e-11
4.52118e-11
4.90061e-11
5.71774e-11
5.90603e-11
6.18741e-11
6.39773e-11
5.9039e-11
5.5806e-11
5.48042e-11
5.48326e-11
5.53086e-11
5.37241e-11
5.32481e-11
6.13483e-11
6.81624e-11
7.37899e-11
6.86171e-11
6.50004e-11
7.25748e-11
7.3328e-11
6.80274e-11
7.10685e-11
6.6585e-11
6.80629e-11
6.80203e-11
6.14904e-11
5.40723e-11
4.78479e-11
4.25047e-11
4.25473e-11
3.76801e-11
3.31113e-11
3.20242e-11
2.80878e-11
2.94378e-11
3.32818e-11
2.95373e-11
2.70006e-11
2.47553e-11
3.03899e-11
3.30616e-11
3.44968e-11
4.06857e-11
4.29026e-11
4.01243e-11
4.53824e-11
5.21112e-11
5.71276e-11
5.74261e-11
5.47757e-11
4.83169e-11
5.0477e-11
4.46576e-11
4.718e-11
4.14175e-11
3.69269e-11
3.86393e-11
3.25997e-11
3.07452e-11
3.22089e-11
2.85354e-11
3.06031e-11
3.51434e-11
4.10978e-11
4.65832e-11
4.86224e-11
4.98872e-11
5.26725e-11
4.95248e-11
4.37979e-11
3.88596e-11
3.8213e-11
3.93783e-11
4.11546e-11
3.60885e-11
3.78151e-11
4.12257e-11
3.76303e-11
4.10694e-11
4.19647e-11
4.48424e-11
3.9698e-11
4.02878e-11
3.78293e-11
4.2867e-11
3.97691e-11
3.33316e-11
2.77041e-11
2.53095e-11
3.19389e-11
2.99423e-11
3.15339e-11
3.49871e-11
3.28058e-11
3.08944e-11
3.91864e-11
3.38574e-11
3.11005e-11
2.53806e-11
3.07097e-11
2.92815e-11
3.48521e-11
3.86891e-11
3.31042e-11
3.2486e-11
3.81419e-11
3.7808e-11
3.87104e-11
3.77085e-11
2.94946e-11
2.63469e-11
2.15508e-11
2.5274e-11
2.79456e-11
3.91864e-11
5.9778e-11
1.044e-10
1.98668e-10
3.94174e-10
7.97748e-10
1.63399e-09
3.35382e-09
6.86903e-09
1.39738e-08
2.82305e-08
5.65892e-08
1.12537e-07
2.22028e-07
4.34572e-07
8.43761e-07
1.62495e-06
3.10362e-06
5.87833e-06
1.10392e-05
2.05524e-05
3.79283e-05
6.93698e-05
0.000125723
0.000225749
0.000401532
0.000707321
0.00123375
0.00213041
0.00364099
0.00615737
0.0103009
0.0170429
0.0278784
0.0450722
0.0719978
0.113589
0.176924
0.271946
0.412308
0.616292
0.907705
1.31658
1.87947
2.63896
3.64207
4.9371
6.56833
8.56757
10.9398
13.6502
16.6509
19.9045
23.3815
27.0548
30.8981
34.8861
38.9953
43.2047
47.4953
51.8507
56.2569
60.7017
65.1749
69.668
74.1735
78.6853
83.1981
87.7075
92.2096
96.7012
101.179
105.642
110.086
114.511
118.915
123.296
127.652
131.984
136.29
140.569
144.821
149.044
153.238
157.403
161.538
165.643
169.718
173.761
177.773
181.754
185.703
189.62
193.505
197.358
201.179
204.967
208.722
212.445
216.135
219.792
223.417
227.008
230.567
234.093
237.585
241.045
244.472
247.866
251.227
254.554
257.849
261.112
264.341
267.537
270.701
273.832
276.93
279.996
283.029
286.029
288.997
291.933
294.836
297.706
300.544
303.35
306.124
308.865
311.575
314.252
316.897
319.51
322.091
324.64
327.157
329.642
332.095
334.517
336.906
339.263
341.588
343.882
346.143
348.372
350.569
352.733
354.866
356.965
359.033
361.067
363.069
365.037
366.973
368.874
370.742
372.576
374.375
376.14
377.868
379.563
381.218
382.842
384.418
385.973
387.465
388.948
390.356
391.753
393.09
394.376
395.657
396.821
398.027
399.101
400.17
401.202
402.107
403.059
403.878
404.648
405.427
406.048
406.674
407.254
407.7
408.162
408.553
408.842
409.138
409.372
409.529
409.682
409.8
409.865
409.916
409.959
409.976
409.975
409.975
409.977
409.975
409.967
409.958
409.949
409.936
409.918
409.902
409.887
409.874
409.867
409.861
409.854
409.85
409.847
409.843
409.839
409.837
409.836
409.834
409.832
409.831
409.829
409.826
409.823
409.821
409.818
409.816
409.815
409.812
409.81
409.809
409.806
409.803
409.801
409.799
409.796
409.794
409.792
409.79
409.787
409.784
409.782
409.779
409.776
409.773
409.771
409.768
409.766
409.763
409.761
409.757
409.755
409.752
409.749
409.746
409.743
409.74
409.737
409.734
409.731
409.727
409.724
409.721
409.717
409.713
409.71
409.707
409.703
409.698
409.695
409.692
409.687
409.682
409.678
409.675
409.671
409.665
409.661
409.657
409.654
409.648
409.642
409.638
409.634
409.629
409.622
409.616
409.612
409.608
409.602
409.594
409.587
409.582
409.579
409.573
409.564
409.555
409.549
409.544
409.54
409.531
409.52
409.508
409.499
409.494
409.489
409.48
409.465
409.449
409.434
409.425
409.42
409.414
409.401
409.38
409.358
409.341
409.33
409.323
409.314
409.298
409.266
409.234
409.209
409.195
409.186
409.174
409.154
409.109
409.058
409.014
408.983
408.966
408.956
408.941
408.909
408.81
408.683
408.563
408.47
408.415
408.382
408.379
408.425
408.541
408.654
408.816
408.963
408.592
405.323
391.836
367.689
346.609
329.051
314.443
302.681
293.858
287.62
283.004
279.488
277.094
275.75
275.007
274.312
273.633
273.401
273.623
273.614
273.236
273.082
273.326
273.551
273.369
273.06
273.155
273.546
273.545
273.106
273.044
273.465
273.601
273.311
273.054
273.221
273.579
273.539
273.113
273.073
273.496
273.605
273.286
273.071
273.265
273.588
273.504
273.097
273.102
273.558
273.628
273.193
273.048
273.353
273.621
273.475
273.097
273.124
273.559
273.618
273.175
273.055
273.41
273.632
273.415
273.077
273.166
273.585
273.605
273.142
273.052
273.471
273.639
273.357
273.068
273.206
273.597
273.581
273.122
273.054
273.52
273.651
273.267
273.04
273.291
273.634
273.507
273.067
273.079
273.583
273.662
273.145
273
273.386
273.654
273.435
273.038
273.102
273.586
273.629
273.097
272.987
273.43
273.647
273.34
272.995
273.131
273.59
273.573
273.03
272.952
273.475
273.637
273.198
272.923
273.127
273.562
273.48
272.94
272.888
273.434
273.571
273.023
272.813
273.075
273.477
273.311
272.797
272.77
273.29
273.401
272.805
272.651
272.889
273.253
273.003
272.554
272.552
273.002
273.062
272.426
272.338
272.501
272.825
272.47
272.094
272.099
272.331
272.472
271.749
271.67
271.741
272.059
271.572
271.013
271.004
271.275
271.35
270.097
269.982
270.157
270.734
269.27
268.491
268.55
269.151
268.809
266.257
265.996
266.463
267.485
263.338
259.982
255.694
249.472
226.313
94.5693
30.7865
7.95583
1.92991
0.459463
0.108811
0.0257301
0.00608237
0.00143781
0.000339885
8.03451e-05
1.8992e-05
4.48917e-06
1.06108e-06
2.50791e-07
5.92732e-08
1.40086e-08
3.31072e-09
7.83084e-10
1.85539e-10
4.38884e-11
9.94937e-12
2.15117e-12
9.5568e-13
1.54543e-13
-1.55609e-12
-5.15143e-13
-9.61009e-13
-1.19016e-13
1.44418e-12
3.41771e-12
3.49942e-12
4.28102e-12
5.74651e-12
6.26521e-12
8.03091e-12
7.23333e-12
8.26184e-12
8.45723e-12
7.95097e-12
6.95977e-12
5.91349e-12
7.14273e-12
7.35412e-12
6.79812e-12
8.15881e-12
9.55858e-12
1.00044e-11
9.15534e-12
8.89244e-12
6.98108e-12
6.06803e-12
4.89209e-12
4.80327e-12
4.84945e-12
6.03073e-12
6.68621e-12
5.53158e-12
4.83524e-12
5.5671e-12
8.16591e-12
7.65965e-12
5.48717e-12
4.04299e-12
4.34852e-12
4.4853e-12
4.4853e-12
4.40892e-12
3.31646e-12
2.78355e-12
3.32356e-12
5.10347e-12
5.20473e-12
6.49791e-12
5.48006e-12
5.86375e-12
5.33795e-12
6.38778e-12
5.09992e-12
3.55627e-12
2.73914e-12
3.05356e-12
3.18678e-12
3.17968e-12
1.51346e-12
2.85816e-12
1.40155e-12
4.88498e-13
2.04814e-12
7.33635e-13
-8.49099e-13
-9.71667e-13
1.20615e-12
8.43769e-13
3.58646e-12
4.0572e-12
3.35731e-12
3.49409e-12
2.45137e-12
1.05338e-12
2.32347e-12
2.97007e-12
2.71783e-12
1.66622e-12
9.50351e-13
2.9754e-12
2.74802e-12
3.09264e-12
4.0874e-12
4.583e-12
5.68612e-12
4.37872e-12
5.39124e-12
4.95426e-12
4.86367e-12
5.54223e-12
6.00409e-12
6.54765e-12
8.68283e-12
1.01679e-11
1.06137e-11
1.16884e-11
1.06457e-11
1.02798e-11
1.02496e-11
8.91731e-12
9.17311e-12
9.3916e-12
9.84812e-12
1.01075e-11
9.96891e-12
1.05302e-11
9.05409e-12
9.48042e-12
9.65628e-12
1.15428e-11
1.18394e-11
1.36566e-11
1.41558e-11
1.30527e-11
1.44027e-11
1.52003e-11
1.66676e-11
1.58025e-11
1.76978e-11
1.94031e-11
1.91775e-11
2.05382e-11
2.04459e-11
1.89786e-11
2.06821e-11
2.04778e-11
1.91491e-11
1.85576e-11
1.72928e-11
1.62856e-11
1.76072e-11
1.57065e-11
1.59623e-11
1.80478e-11
1.62572e-11
1.55502e-11
1.38929e-11
1.52198e-11
1.62075e-11
1.68239e-11
1.67422e-11
1.7419e-11
1.72218e-11
1.90301e-11
1.69855e-11
1.71774e-11
1.8618e-11
1.88649e-11
2.02593e-11
2.01208e-11
1.97744e-11
2.17497e-11
2.09539e-11
2.05613e-11
2.15703e-11
2.17586e-11
2.18385e-11
2.29523e-11
2.21174e-11
2.12292e-11
2.15064e-11
2.0755e-11
2.21991e-11
2.3622e-11
2.55174e-11
2.73381e-11
2.81908e-11
2.92939e-11
3.14238e-11
3.11573e-11
2.99707e-11
2.82459e-11
2.82245e-11
2.67271e-11
2.81268e-11
2.77893e-11
2.73292e-11
2.71196e-11
2.71321e-11
2.65405e-11
2.7919e-11
2.81641e-11
2.9166e-11
2.81677e-11
2.78852e-11
2.85603e-11
2.72937e-11
2.86562e-11
2.85763e-11
3.07097e-11
3.02531e-11
3.13527e-11
3.36762e-11
3.54845e-11
3.56657e-11
3.49871e-11
3.35056e-11
3.22498e-11
3.13172e-11
2.97291e-11
2.87059e-11
2.68301e-11
2.64784e-11
2.51958e-11
)
;

boundaryField
{
    sides
    {
        type            calculated;
        value           nonuniform List<scalar> 2(2.33534e-11 2.57576e-11);
    }
    empty
    {
        type            empty;
        value           nonuniform 0();
    }
}


// ************************************************************************* //
