/*--------------------------------*- C++ -*----------------------------------*\
| =========                 |                                                 |
| \\      /  F ield         | OpenFOAM: The Open Source CFD Toolbox           |
|  \\    /   O peration     | Version:  4.1                                   |
|   \\  /    A nd           | Web:      www.OpenFOAM.org                      |
|    \\/     M anipulation  |                                                 |
\*---------------------------------------------------------------------------*/
FoamFile
{
    version     2.0;
    format      ascii;
    class       volScalarField;
    location    "0.005";
    object      T;
}
// * * * * * * * * * * * * * * * * * * * * * * * * * * * * * * * * * * * * * //

dimensions      [0 0 0 1 0 0 0];

internalField   nonuniform List<scalar> 
1000
(
400
400
400
400
400
400
400
400
400
400
400
400
400
400
400
400
400
400
400
400
400
400
400
400
400
400
400
400
400
400
400
400
400
400
400
400
400
400
400
400
400
400
400
400
400
400
400
400
400
400
400
400
400
400
400
400
400
400
400
400
400
400
400
400
400
400
400
400
400
400
400
400
400
400
400
400
400
400
400
400
400
400
400
400
400
400
400
400
400
400
400
400
400
400
400
400
400
400
400
400
400
400
400
400
400
400
400
400
400
400
400
400
400
400
400
400
400
400
400
400
400
400
400
400
400
400
400
400
400
400
400
400
400
400
400
400
400
400
400
400
400
400
400
400
400
400
400
400
400
400
400
400
400
400
400
400
400
400
400
400
400
400
400
400
400
400
400
400
400
400
400
400
400
400
400
400
400
400
400
400
400
400
400
400
400
400
400
400
400
400
400
400
400
400
400
400
400
400
400
400
400
400
400
400
400
400
400
400
400
400
400
400
400
400
400
400
400
400
400
400
400
400
400
400
400
400
400
400
400
400
400
400
400
400
400
400
400
400
400
400
400
400
400
400
400
400
400
400
400
400
400
400
400
400
400
400
400
400
400
400
400
400
400
400
400
400
400
400
400
400
400
400
400
400
399.999
399.999
399.999
399.998
399.996
399.994
399.99
399.984
399.975
399.962
399.943
399.915
399.875
399.82
399.745
399.645
399.513
399.345
399.136
398.884
398.588
398.256
397.89
397.494
397.072
396.626
396.159
395.673
395.171
394.655
394.127
393.588
393.041
392.486
391.923
391.355
390.782
390.205
389.623
389.038
388.45
387.86
387.266
386.671
386.074
385.475
384.874
384.273
383.67
383.065
382.46
381.854
381.248
380.64
380.032
379.424
378.815
378.205
377.595
376.985
376.375
375.765
375.154
374.544
373.933
373.322
372.712
372.101
371.491
370.88
370.27
369.66
369.051
368.441
367.832
367.223
366.615
366.007
365.399
364.792
364.185
363.579
362.974
362.368
361.764
361.16
360.557
359.954
359.352
358.751
358.15
357.551
356.952
356.354
355.757
355.161
354.566
353.972
353.379
352.787
352.196
351.606
351.018
350.43
349.845
349.26
348.677
348.096
347.516
346.938
346.361
345.786
345.213
344.643
344.074
343.507
342.943
342.381
341.821
341.264
340.71
340.159
339.611
339.066
338.525
337.987
337.453
336.923
336.398
335.877
335.363
334.849
334.352
333.838
333.372
332.844
332.432
331.867
331.53
330.929
330.642
330.071
329.742
329.311
328.857
328.59
328.09
327.828
327.482
327.086
326.9
326.529
326.274
326.102
325.786
325.632
325.481
325.251
325.162
325.055
324.908
324.86
324.805
324.725
324.701
324.688
324.655
324.643
324.646
324.646
324.644
324.644
324.647
324.65
324.653
324.657
324.665
324.674
324.678
324.685
324.691
324.693
324.697
324.7
324.701
324.702
324.704
324.705
324.706
324.707
324.709
324.71
324.711
324.713
324.714
324.715
324.716
324.718
324.719
324.72
324.722
324.724
324.725
324.726
324.728
324.729
324.73
324.732
324.734
324.735
324.737
324.739
324.74
324.741
324.743
324.745
324.746
324.748
324.751
324.752
324.753
324.756
324.758
324.759
324.761
324.764
324.765
324.767
324.77
324.771
324.774
324.776
324.778
324.78
324.782
324.786
324.788
324.789
324.792
324.796
324.798
324.8
324.802
324.806
324.81
324.812
324.814
324.818
324.822
324.825
324.826
324.83
324.835
324.839
324.841
324.844
324.849
324.854
324.858
324.86
324.863
324.869
324.875
324.88
324.882
324.885
324.891
324.899
324.905
324.909
324.911
324.916
324.924
324.934
324.942
324.947
324.949
324.953
324.962
324.975
324.987
324.995
325
325.003
325.009
325.023
325.041
325.057
325.067
325.072
325.076
325.084
325.104
325.13
325.153
325.169
325.176
325.182
325.192
325.22
325.261
325.3
325.331
325.349
325.357
325.364
325.379
325.428
325.529
325.63
325.714
325.771
325.801
325.808
325.799
325.733
325.597
325.493
325.452
325.533
326.619
332.746
350.621
372.856
394.578
414.637
432.172
446.75
458.367
467.244
473.729
478.279
481.407
483.523
484.875
485.678
486.159
486.477
486.683
486.77
486.773
486.792
486.849
486.862
486.814
486.785
486.816
486.849
486.823
486.77
486.776
486.828
486.83
486.773
486.752
486.794
486.823
486.792
486.744
486.754
486.805
486.805
486.747
486.731
486.775
486.799
486.761
486.719
486.741
486.79
486.78
486.718
486.711
486.766
486.783
486.737
486.701
486.727
486.771
486.758
486.7
486.697
486.754
486.766
486.713
486.685
486.722
486.759
486.736
486.684
486.688
486.744
486.751
486.695
486.673
486.716
486.749
486.718
486.671
486.682
486.738
486.738
486.677
486.662
486.716
486.741
486.694
486.654
486.683
486.734
486.72
486.655
486.651
486.714
486.73
486.672
486.64
486.677
486.724
486.702
486.64
486.642
486.706
486.716
486.651
486.624
486.672
486.711
486.675
486.619
486.63
486.696
486.698
486.624
486.605
486.659
486.694
486.645
486.592
486.61
486.673
486.667
486.587
486.573
486.63
486.659
486.597
486.55
486.568
486.625
486.61
486.529
486.517
486.566
486.589
486.517
486.479
486.495
486.54
486.505
486.429
486.42
486.454
486.469
486.383
486.344
486.34
486.367
486.329
486.233
486.217
486.226
486.237
486.108
486.055
486.043
486.063
485.973
485.833
485.791
485.783
485.785
485.507
485.381
485.361
485.448
485.142
484.78
484.739
484.749
484.604
483.628
482.865
481.142
477.349
464.217
421.458
406.141
401.527
400.366
400.087
400.021
400.005
400.001
400
400
400
400
400
400
400
400
400
400
400
400
400
400
400
400
400
400
400
400
400
400
400
400
400
400
400
400
400
400
400
400
400
400
400
400
400
400
400
400
400
400
400
400
400
400
400
400
400
400
400
400
400
400
400
400
400
400
400
400
400
400
400
400
400
400
400
400
400
400
400
400
400
400
400
400
400
400
400
400
400
400
400
400
400
400
400
400
400
400
400
400
400
400
400
400
400
400
400
400
400
400
400
400
400
400
400
400
400
400
400
400
400
400
400
400
400
400
400
400
400
400
400
400
400
400
400
400
400
400
400
400
400
400
400
400
400
400
400
400
400
400
400
400
400
400
400
400
400
400
400
400
400
400
400
400
400
400
400
400
400
400
400
400
400
400
400
400
400
400
400
400
400
400
400
400
400
400
400
400
400
400
400
400
400
400
400
400
400
400
400
400
400
400
400
400
400
400
400
400
400
400
400
400
400
400
400
400
400
400
400
400
400
400
400
400
400
400
400
400
400
400
)
;

boundaryField
{
    sides
    {
        type            zeroGradient;
    }
    empty
    {
        type            empty;
    }
}


// ************************************************************************* //
