/*--------------------------------*- C++ -*----------------------------------*\
| =========                 |                                                 |
| \\      /  F ield         | OpenFOAM: The Open Source CFD Toolbox           |
|  \\    /   O peration     | Version:  4.1                                   |
|   \\  /    A nd           | Web:      www.OpenFOAM.org                      |
|    \\/     M anipulation  |                                                 |
\*---------------------------------------------------------------------------*/
FoamFile
{
    version     2.0;
    format      ascii;
    class       volVectorField;
    location    "0.005";
    object      U;
}
// * * * * * * * * * * * * * * * * * * * * * * * * * * * * * * * * * * * * * //

dimensions      [0 1 -1 0 0 0 0];

internalField   nonuniform List<vector> 
1000
(
(-7.40203e-12 0 0)
(-3.40135e-12 0 0)
(-5.1541e-12 0 0)
(-4.4889e-14 0 0)
(-1.16187e-12 0 0)
(-2.72085e-12 0 0)
(-1.38667e-12 0 0)
(-1.21709e-12 0 0)
(-9.16703e-13 0 0)
(-2.97253e-12 0 0)
(-1.05e-12 0 0)
(-3.12483e-12 0 0)
(1.21533e-12 0 0)
(-2.90651e-12 0 0)
(1.54917e-12 0 0)
(-1.97543e-12 0 0)
(-1.45496e-12 0 0)
(-4.07481e-12 0 0)
(-1.01301e-12 0 0)
(-4.35915e-12 0 0)
(-3.80761e-12 0 0)
(-5.93933e-12 0 0)
(-6.22252e-12 0 0)
(-6.16913e-12 0 0)
(-4.78527e-12 0 0)
(-7.7983e-12 0 0)
(-7.334e-12 0 0)
(-1.07363e-11 0 0)
(-8.62529e-12 0 0)
(-6.60503e-12 0 0)
(-7.65176e-12 0 0)
(-7.91808e-12 0 0)
(-9.49095e-12 0 0)
(-6.92002e-12 0 0)
(-1.17239e-11 0 0)
(-9.75509e-12 0 0)
(-1.43488e-11 0 0)
(-1.28748e-11 0 0)
(-1.8558e-11 0 0)
(-1.59409e-11 0 0)
(-2.11121e-11 0 0)
(-2.06198e-11 0 0)
(-2.24227e-11 0 0)
(-1.91451e-11 0 0)
(-2.39032e-11 0 0)
(-2.13556e-11 0 0)
(-2.32917e-11 0 0)
(-2.21541e-11 0 0)
(-2.37973e-11 0 0)
(-2.11943e-11 0 0)
(-2.3576e-11 0 0)
(-1.99699e-11 0 0)
(-1.94283e-11 0 0)
(-1.87466e-11 0 0)
(-1.54669e-11 0 0)
(-1.6373e-11 0 0)
(-1.61326e-11 0 0)
(-1.56217e-11 0 0)
(-1.35626e-11 0 0)
(-1.71256e-11 0 0)
(-1.31181e-11 0 0)
(-1.56671e-11 0 0)
(-1.44828e-11 0 0)
(-1.52281e-11 0 0)
(-1.26637e-11 0 0)
(-1.49454e-11 0 0)
(-1.09293e-11 0 0)
(-1.54541e-11 0 0)
(-1.32097e-11 0 0)
(-1.58541e-11 0 0)
(-1.03053e-11 0 0)
(-1.27278e-11 0 0)
(-7.41873e-12 0 0)
(-1.01604e-11 0 0)
(-5.95813e-12 0 0)
(-8.14182e-12 0 0)
(-4.13417e-12 0 0)
(-5.76064e-12 0 0)
(-5.94824e-12 0 0)
(-6.55591e-12 0 0)
(-8.36178e-12 0 0)
(-1.1446e-11 0 0)
(-1.0406e-11 0 0)
(-1.02297e-11 0 0)
(-9.43671e-12 0 0)
(-5.3745e-12 0 0)
(-6.71556e-12 0 0)
(-5.15065e-12 0 0)
(-7.35748e-12 0 0)
(-2.7647e-12 0 0)
(-5.40012e-12 0 0)
(-1.98566e-13 0 0)
(-3.43066e-13 0 0)
(6.65576e-12 0 0)
(1.97501e-12 0 0)
(5.96775e-12 0 0)
(4.67288e-12 0 0)
(4.83943e-12 0 0)
(4.71658e-12 0 0)
(8.09539e-12 0 0)
(7.74748e-12 0 0)
(6.4974e-12 0 0)
(9.23217e-12 0 0)
(8.91599e-12 0 0)
(1.13931e-11 0 0)
(9.65597e-12 0 0)
(6.21165e-12 0 0)
(7.56671e-12 0 0)
(7.56402e-12 0 0)
(8.82913e-12 0 0)
(9.55819e-12 0 0)
(9.01748e-12 0 0)
(8.70553e-12 0 0)
(7.87181e-12 0 0)
(1.06705e-11 0 0)
(1.15819e-11 0 0)
(1.16797e-11 0 0)
(1.1386e-11 0 0)
(1.32903e-11 0 0)
(1.34312e-11 0 0)
(1.44189e-11 0 0)
(1.4193e-11 0 0)
(1.26118e-11 0 0)
(1.55983e-11 0 0)
(1.57139e-11 0 0)
(1.65682e-11 0 0)
(1.64131e-11 0 0)
(1.78161e-11 0 0)
(1.5477e-11 0 0)
(1.71253e-11 0 0)
(1.30513e-11 0 0)
(1.3301e-11 0 0)
(1.56354e-11 0 0)
(1.61613e-11 0 0)
(1.84096e-11 0 0)
(1.8157e-11 0 0)
(1.74097e-11 0 0)
(1.70731e-11 0 0)
(1.54446e-11 0 0)
(1.587e-11 0 0)
(1.57256e-11 0 0)
(1.5643e-11 0 0)
(1.49067e-11 0 0)
(1.66456e-11 0 0)
(1.8717e-11 0 0)
(2.00246e-11 0 0)
(2.15683e-11 0 0)
(1.8105e-11 0 0)
(2.03153e-11 0 0)
(2.04327e-11 0 0)
(2.12367e-11 0 0)
(1.91579e-11 0 0)
(2.11097e-11 0 0)
(1.78366e-11 0 0)
(2.06763e-11 0 0)
(1.83387e-11 0 0)
(1.65477e-11 0 0)
(1.48875e-11 0 0)
(1.24793e-11 0 0)
(1.22646e-11 0 0)
(1.13877e-11 0 0)
(1.03833e-11 0 0)
(9.3531e-12 0 0)
(8.5366e-12 0 0)
(8.05001e-12 0 0)
(9.39641e-12 0 0)
(8.99511e-12 0 0)
(7.96392e-12 0 0)
(7.16699e-12 0 0)
(7.8959e-12 0 0)
(8.75764e-12 0 0)
(9.99869e-12 0 0)
(1.0915e-11 0 0)
(1.21064e-11 0 0)
(1.1058e-11 0 0)
(1.32935e-11 0 0)
(1.26699e-11 0 0)
(1.75788e-11 0 0)
(1.53154e-11 0 0)
(1.69479e-11 0 0)
(1.40611e-11 0 0)
(1.44306e-11 0 0)
(1.37057e-11 0 0)
(1.31133e-11 0 0)
(1.27886e-11 0 0)
(1.1608e-11 0 0)
(1.00027e-11 0 0)
(1.1403e-11 0 0)
(8.39739e-12 0 0)
(8.72808e-12 0 0)
(9.18946e-12 0 0)
(7.02684e-12 0 0)
(1.11685e-11 0 0)
(9.59074e-12 0 0)
(1.37841e-11 0 0)
(1.22278e-11 0 0)
(1.61605e-11 0 0)
(1.29544e-11 0 0)
(1.67025e-11 0 0)
(1.14477e-11 0 0)
(1.39977e-11 0 0)
(9.04457e-12 0 0)
(1.22828e-11 0 0)
(1.1074e-11 0 0)
(1.18303e-11 0 0)
(9.60078e-12 0 0)
(1.24575e-11 0 0)
(1.08757e-11 0 0)
(1.11141e-11 0 0)
(1.1789e-11 0 0)
(1.26695e-11 0 0)
(1.2654e-11 0 0)
(1.09759e-11 0 0)
(1.21061e-11 0 0)
(1.0159e-11 0 0)
(1.42167e-11 0 0)
(8.29849e-12 0 0)
(1.08554e-11 0 0)
(4.81863e-12 0 0)
(1.04031e-11 0 0)
(7.55284e-12 0 0)
(9.97084e-12 0 0)
(7.90771e-12 0 0)
(1.18672e-11 0 0)
(6.43536e-12 0 0)
(1.23888e-11 0 0)
(9.04415e-12 0 0)
(1.06295e-11 0 0)
(6.48091e-12 0 0)
(8.90373e-12 0 0)
(8.06357e-12 0 0)
(9.15423e-12 0 0)
(1.13424e-11 0 0)
(1.03011e-11 0 0)
(9.36637e-12 0 0)
(9.11453e-12 0 0)
(1.22877e-11 0 0)
(9.47939e-12 0 0)
(1.34569e-11 0 0)
(7.44229e-12 0 0)
(1.00549e-11 0 0)
(4.49239e-12 0 0)
(8.2664e-12 0 0)
(6.23092e-12 0 0)
(1.07081e-11 0 0)
(1.22506e-11 0 0)
(2.36003e-11 0 0)
(3.92862e-11 0 0)
(8.02958e-11 0 0)
(1.57696e-10 0 0)
(3.24358e-10 0 0)
(6.6171e-10 0 0)
(1.36114e-09 0 0)
(2.77804e-09 0 0)
(5.63688e-09 0 0)
(1.1348e-08 0 0)
(2.26707e-08 0 0)
(4.49255e-08 0 0)
(8.83272e-08 0 0)
(1.72268e-07 0 0)
(3.33276e-07 0 0)
(6.39494e-07 0 0)
(1.21689e-06 0 0)
(2.29611e-06 0 0)
(4.29537e-06 0 0)
(7.96556e-06 0 0)
(1.4641e-05 0 0)
(2.66685e-05 0 0)
(4.81311e-05 0 0)
(8.60549e-05 0 0)
(0.000152394 0 0)
(0.000267249 0 0)
(0.000464015 0 0)
(0.000797477 0 0)
(0.00135635 0 0)
(0.00228238 0 0)
(0.0037988 0 0)
(0.00625207 0 0)
(0.0101715 0 0)
(0.0163527 0 0)
(0.0259703 0 0)
(0.040727 0 0)
(0.0630415 0 0)
(0.0962751 0 0)
(0.144989 0 0)
(0.215213 0 0)
(0.314684 0 0)
(0.453005 0 0)
(0.641635 0 0)
(0.893614 0 0)
(1.2229 0 0)
(1.64314 0 0)
(2.16567 0 0)
(2.79617 0 0)
(3.5314 0 0)
(4.36127 0 0)
(5.27495 0 0)
(6.26377 0 0)
(7.32039 0 0)
(8.43787 0 0)
(9.60945 0 0)
(10.8287 0 0)
(12.0897 0 0)
(13.3871 0 0)
(14.7161 0 0)
(16.0726 0 0)
(17.4531 0 0)
(18.8544 0 0)
(20.274 0 0)
(21.7097 0 0)
(23.1595 0 0)
(24.622 0 0)
(26.0958 0 0)
(27.5796 0 0)
(29.0725 0 0)
(30.5736 0 0)
(32.0821 0 0)
(33.5974 0 0)
(35.1189 0 0)
(36.646 0 0)
(38.1783 0 0)
(39.7155 0 0)
(41.257 0 0)
(42.8027 0 0)
(44.3522 0 0)
(45.9052 0 0)
(47.4615 0 0)
(49.0209 0 0)
(50.5831 0 0)
(52.148 0 0)
(53.7153 0 0)
(55.285 0 0)
(56.8569 0 0)
(58.4308 0 0)
(60.0066 0 0)
(61.5841 0 0)
(63.1633 0 0)
(64.7441 0 0)
(66.3263 0 0)
(67.9097 0 0)
(69.4945 0 0)
(71.0803 0 0)
(72.6672 0 0)
(74.2551 0 0)
(75.8438 0 0)
(77.4333 0 0)
(79.0234 0 0)
(80.6142 0 0)
(82.2056 0 0)
(83.7974 0 0)
(85.3896 0 0)
(86.9821 0 0)
(88.5748 0 0)
(90.1677 0 0)
(91.7607 0 0)
(93.3537 0 0)
(94.9467 0 0)
(96.5395 0 0)
(98.132 0 0)
(99.7243 0 0)
(101.316 0 0)
(102.908 0 0)
(104.499 0 0)
(106.089 0 0)
(107.679 0 0)
(109.267 0 0)
(110.855 0 0)
(112.442 0 0)
(114.028 0 0)
(115.613 0 0)
(117.196 0 0)
(118.778 0 0)
(120.359 0 0)
(121.938 0 0)
(123.515 0 0)
(125.091 0 0)
(126.664 0 0)
(128.236 0 0)
(129.805 0 0)
(131.371 0 0)
(132.935 0 0)
(134.497 0 0)
(136.055 0 0)
(137.611 0 0)
(139.162 0 0)
(140.711 0 0)
(142.256 0 0)
(143.796 0 0)
(145.332 0 0)
(146.864 0 0)
(148.391 0 0)
(149.913 0 0)
(151.429 0 0)
(152.939 0 0)
(154.443 0 0)
(155.941 0 0)
(157.431 0 0)
(158.913 0 0)
(160.387 0 0)
(161.853 0 0)
(163.309 0 0)
(164.755 0 0)
(166.19 0 0)
(167.614 0 0)
(169.025 0 0)
(170.423 0 0)
(171.807 0 0)
(173.175 0 0)
(174.527 0 0)
(175.861 0 0)
(177.176 0 0)
(178.47 0 0)
(179.742 0 0)
(180.99 0 0)
(182.213 0 0)
(183.407 0 0)
(184.572 0 0)
(185.706 0 0)
(186.804 0 0)
(187.867 0 0)
(188.89 0 0)
(189.872 0 0)
(190.809 0 0)
(191.699 0 0)
(192.54 0 0)
(193.33 0 0)
(194.064 0 0)
(194.744 0 0)
(195.365 0 0)
(195.928 0 0)
(196.433 0 0)
(196.878 0 0)
(197.266 0 0)
(197.599 0 0)
(197.878 0 0)
(198.107 0 0)
(198.292 0 0)
(198.434 0 0)
(198.541 0 0)
(198.618 0 0)
(198.668 0 0)
(198.7 0 0)
(198.716 0 0)
(198.721 0 0)
(198.721 0 0)
(198.722 0 0)
(198.721 0 0)
(198.717 0 0)
(198.709 0 0)
(198.694 0 0)
(198.676 0 0)
(198.658 0 0)
(198.641 0 0)
(198.626 0 0)
(198.615 0 0)
(198.607 0 0)
(198.602 0 0)
(198.597 0 0)
(198.595 0 0)
(198.593 0 0)
(198.591 0 0)
(198.59 0 0)
(198.589 0 0)
(198.588 0 0)
(198.588 0 0)
(198.587 0 0)
(198.587 0 0)
(198.586 0 0)
(198.585 0 0)
(198.584 0 0)
(198.583 0 0)
(198.582 0 0)
(198.582 0 0)
(198.581 0 0)
(198.581 0 0)
(198.58 0 0)
(198.58 0 0)
(198.579 0 0)
(198.578 0 0)
(198.578 0 0)
(198.577 0 0)
(198.576 0 0)
(198.576 0 0)
(198.575 0 0)
(198.575 0 0)
(198.574 0 0)
(198.574 0 0)
(198.573 0 0)
(198.572 0 0)
(198.572 0 0)
(198.571 0 0)
(198.571 0 0)
(198.57 0 0)
(198.569 0 0)
(198.569 0 0)
(198.568 0 0)
(198.568 0 0)
(198.567 0 0)
(198.567 0 0)
(198.566 0 0)
(198.566 0 0)
(198.565 0 0)
(198.565 0 0)
(198.564 0 0)
(198.564 0 0)
(198.563 0 0)
(198.563 0 0)
(198.562 0 0)
(198.562 0 0)
(198.561 0 0)
(198.561 0 0)
(198.56 0 0)
(198.56 0 0)
(198.559 0 0)
(198.558 0 0)
(198.558 0 0)
(198.557 0 0)
(198.557 0 0)
(198.556 0 0)
(198.556 0 0)
(198.555 0 0)
(198.555 0 0)
(198.554 0 0)
(198.554 0 0)
(198.553 0 0)
(198.553 0 0)
(198.553 0 0)
(198.552 0 0)
(198.552 0 0)
(198.552 0 0)
(198.551 0 0)
(198.551 0 0)
(198.551 0 0)
(198.55 0 0)
(198.55 0 0)
(198.55 0 0)
(198.549 0 0)
(198.549 0 0)
(198.549 0 0)
(198.549 0 0)
(198.549 0 0)
(198.549 0 0)
(198.548 0 0)
(198.548 0 0)
(198.548 0 0)
(198.548 0 0)
(198.548 0 0)
(198.547 0 0)
(198.547 0 0)
(198.547 0 0)
(198.547 0 0)
(198.546 0 0)
(198.546 0 0)
(198.546 0 0)
(198.545 0 0)
(198.545 0 0)
(198.545 0 0)
(198.544 0 0)
(198.544 0 0)
(198.544 0 0)
(198.543 0 0)
(198.543 0 0)
(198.543 0 0)
(198.543 0 0)
(198.542 0 0)
(198.542 0 0)
(198.542 0 0)
(198.541 0 0)
(198.541 0 0)
(198.541 0 0)
(198.54 0 0)
(198.54 0 0)
(198.54 0 0)
(198.54 0 0)
(198.54 0 0)
(198.54 0 0)
(198.539 0 0)
(198.539 0 0)
(198.539 0 0)
(198.539 0 0)
(198.54 0 0)
(198.54 0 0)
(198.54 0 0)
(198.539 0 0)
(198.538 0 0)
(198.538 0 0)
(198.537 0 0)
(198.535 0 0)
(198.534 0 0)
(198.534 0 0)
(198.538 0 0)
(198.55 0 0)
(198.577 0 0)
(198.625 0 0)
(198.726 0 0)
(198.859 0 0)
(198.82 0 0)
(198.639 0 0)
(198.538 0 0)
(198.505 0 0)
(198.485 0 0)
(198.473 0 0)
(198.489 0 0)
(198.521 0 0)
(198.532 0 0)
(198.517 0 0)
(198.512 0 0)
(198.537 0 0)
(198.554 0 0)
(198.534 0 0)
(198.511 0 0)
(198.524 0 0)
(198.552 0 0)
(198.549 0 0)
(198.52 0 0)
(198.514 0 0)
(198.543 0 0)
(198.555 0 0)
(198.525 0 0)
(198.501 0 0)
(198.524 0 0)
(198.553 0 0)
(198.535 0 0)
(198.501 0 0)
(198.507 0 0)
(198.543 0 0)
(198.549 0 0)
(198.514 0 0)
(198.497 0 0)
(198.526 0 0)
(198.553 0 0)
(198.532 0 0)
(198.499 0 0)
(198.508 0 0)
(198.542 0 0)
(198.545 0 0)
(198.511 0 0)
(198.497 0 0)
(198.526 0 0)
(198.549 0 0)
(198.524 0 0)
(198.494 0 0)
(198.511 0 0)
(198.546 0 0)
(198.539 0 0)
(198.502 0 0)
(198.495 0 0)
(198.53 0 0)
(198.549 0 0)
(198.519 0 0)
(198.49 0 0)
(198.509 0 0)
(198.543 0 0)
(198.534 0 0)
(198.497 0 0)
(198.494 0 0)
(198.53 0 0)
(198.544 0 0)
(198.511 0 0)
(198.485 0 0)
(198.511 0 0)
(198.543 0 0)
(198.527 0 0)
(198.489 0 0)
(198.493 0 0)
(198.53 0 0)
(198.538 0 0)
(198.503 0 0)
(198.482 0 0)
(198.51 0 0)
(198.539 0 0)
(198.519 0 0)
(198.482 0 0)
(198.491 0 0)
(198.529 0 0)
(198.53 0 0)
(198.491 0 0)
(198.477 0 0)
(198.511 0 0)
(198.534 0 0)
(198.503 0 0)
(198.469 0 0)
(198.49 0 0)
(198.529 0 0)
(198.517 0 0)
(198.473 0 0)
(198.468 0 0)
(198.507 0 0)
(198.524 0 0)
(198.487 0 0)
(198.455 0 0)
(198.48 0 0)
(198.516 0 0)
(198.498 0 0)
(198.454 0 0)
(198.453 0 0)
(198.492 0 0)
(198.501 0 0)
(198.459 0 0)
(198.431 0 0)
(198.459 0 0)
(198.491 0 0)
(198.463 0 0)
(198.416 0 0)
(198.422 0 0)
(198.462 0 0)
(198.46 0 0)
(198.41 0 0)
(198.384 0 0)
(198.414 0 0)
(198.439 0 0)
(198.401 0 0)
(198.351 0 0)
(198.357 0 0)
(198.393 0 0)
(198.38 0 0)
(198.321 0 0)
(198.294 0 0)
(198.322 0 0)
(198.336 0 0)
(198.286 0 0)
(198.23 0 0)
(198.231 0 0)
(198.256 0 0)
(198.229 0 0)
(198.161 0 0)
(198.127 0 0)
(198.141 0 0)
(198.137 0 0)
(198.072 0 0)
(198.008 0 0)
(197.996 0 0)
(197.999 0 0)
(197.947 0 0)
(197.863 0 0)
(197.815 0 0)
(197.803 0 0)
(197.769 0 0)
(197.679 0 0)
(197.593 0 0)
(197.546 0 0)
(197.512 0 0)
(197.429 0 0)
(197.307 0 0)
(197.215 0 0)
(197.156 0 0)
(197.073 0 0)
(196.917 0 0)
(196.76 0 0)
(196.655 0 0)
(196.558 0 0)
(196.372 0 0)
(196.132 0 0)
(195.95 0 0)
(195.82 0 0)
(195.613 0 0)
(195.266 0 0)
(194.934 0 0)
(194.708 0 0)
(194.473 0 0)
(193.994 0 0)
(193.411 0 0)
(193.007 0 0)
(192.661 0 0)
(191.876 0 0)
(190.432 0 0)
(188.168 0 0)
(183.821 0 0)
(172.021 0 0)
(130.138 0 0)
(58.6692 0 0)
(16.1977 0 0)
(4.08025 0 0)
(0.981714 0 0)
(0.233176 0 0)
(0.0551804 0 0)
(0.0130463 0 0)
(0.00308409 0 0)
(0.000729053 0 0)
(0.000172342 0 0)
(4.07386e-05 0 0)
(9.62959e-06 0 0)
(2.27611e-06 0 0)
(5.37979e-07 0 0)
(1.27149e-07 0 0)
(3.00518e-08 0 0)
(7.10109e-09 0 0)
(1.67947e-09 0 0)
(3.97345e-10 0 0)
(9.43635e-11 0 0)
(2.22827e-11 0 0)
(4.19894e-12 0 0)
(1.29877e-12 0 0)
(1.13407e-12 0 0)
(-6.59935e-13 0 0)
(-2.43306e-12 0 0)
(9.10002e-13 0 0)
(-2.86403e-12 0 0)
(2.48391e-12 0 0)
(1.31649e-12 0 0)
(5.86122e-12 0 0)
(2.55831e-12 0 0)
(7.47004e-12 0 0)
(5.68441e-12 0 0)
(9.70506e-12 0 0)
(7.44954e-12 0 0)
(1.00779e-11 0 0)
(8.50544e-12 0 0)
(1.07389e-11 0 0)
(8.08434e-12 0 0)
(7.5594e-12 0 0)
(6.83285e-12 0 0)
(8.77396e-12 0 0)
(7.88431e-12 0 0)
(8.45368e-12 0 0)
(9.74763e-12 0 0)
(1.21309e-11 0 0)
(1.0638e-11 0 0)
(1.062e-11 0 0)
(9.35649e-12 0 0)
(7.63912e-12 0 0)
(5.82067e-12 0 0)
(5.64801e-12 0 0)
(5.06894e-12 0 0)
(6.29307e-12 0 0)
(7.86527e-12 0 0)
(6.5068e-12 0 0)
(6.1876e-12 0 0)
(5.25374e-12 0 0)
(8.44074e-12 0 0)
(9.78645e-12 0 0)
(7.384e-12 0 0)
(5.06952e-12 0 0)
(4.82504e-12 0 0)
(4.68161e-12 0 0)
(5.32294e-12 0 0)
(5.53341e-12 0 0)
(4.38937e-12 0 0)
(2.83612e-12 0 0)
(3.68984e-12 0 0)
(4.35864e-12 0 0)
(6.66802e-12 0 0)
(6.13941e-12 0 0)
(7.94587e-12 0 0)
(5.55584e-12 0 0)
(6.97071e-12 0 0)
(6.07278e-12 0 0)
(7.95048e-12 0 0)
(4.53378e-12 0 0)
(3.03394e-12 0 0)
(3.41453e-12 0 0)
(3.5846e-12 0 0)
(4.65288e-12 0 0)
(1.47958e-12 0 0)
(2.6539e-12 0 0)
(3.42162e-12 0 0)
(-3.69434e-13 0 0)
(1.79453e-12 0 0)
(2.01968e-12 0 0)
(3.42147e-13 0 0)
(-3.0347e-12 0 0)
(1.54683e-12 0 0)
(4.27117e-13 0 0)
(2.12882e-12 0 0)
(5.3506e-12 0 0)
(3.89689e-12 0 0)
(4.17205e-12 0 0)
(3.74704e-12 0 0)
(1.79223e-12 0 0)
(3.45431e-13 0 0)
(5.34842e-12 0 0)
(2.09193e-12 0 0)
(3.64113e-12 0 0)
(-7.87136e-14 0 0)
(2.56358e-12 0 0)
(3.75149e-12 0 0)
(2.61438e-12 0 0)
(4.75827e-12 0 0)
(4.3889e-12 0 0)
(6.82176e-12 0 0)
(5.26893e-12 0 0)
(5.70568e-12 0 0)
(5.89833e-12 0 0)
(5.29092e-12 0 0)
(6.64472e-12 0 0)
(6.04608e-12 0 0)
(7.43166e-12 0 0)
(8.20728e-12 0 0)
(1.11208e-11 0 0)
(1.22192e-11 0 0)
(1.25257e-11 0 0)
(1.38324e-11 0 0)
(1.15282e-11 0 0)
(1.20027e-11 0 0)
(1.0436e-11 0 0)
(1.09223e-11 0 0)
(9.50393e-12 0 0)
(1.24732e-11 0 0)
(1.09321e-11 0 0)
(1.18207e-11 0 0)
(1.18318e-11 0 0)
(1.12111e-11 0 0)
(1.04677e-11 0 0)
(1.11102e-11 0 0)
(1.15779e-11 0 0)
(1.40966e-11 0 0)
(1.42497e-11 0 0)
(1.63466e-11 0 0)
(1.5466e-11 0 0)
(1.54118e-11 0 0)
(1.67185e-11 0 0)
(1.94052e-11 0 0)
(1.75905e-11 0 0)
(1.98673e-11 0 0)
(2.16602e-11 0 0)
(2.1591e-11 0 0)
(2.34625e-11 0 0)
(2.34331e-11 0 0)
(2.27563e-11 0 0)
(2.24101e-11 0 0)
(2.40004e-11 0 0)
(2.2658e-11 0 0)
(2.26765e-11 0 0)
(1.96391e-11 0 0)
(1.9484e-11 0 0)
(1.897e-11 0 0)
(2.02163e-11 0 0)
(1.70365e-11 0 0)
(2.06904e-11 0 0)
(1.93042e-11 0 0)
(1.88501e-11 0 0)
(1.62205e-11 0 0)
(1.70892e-11 0 0)
(1.68539e-11 0 0)
(1.95953e-11 0 0)
(1.98796e-11 0 0)
(1.91344e-11 0 0)
(2.00164e-11 0 0)
(2.10813e-11 0 0)
(2.1222e-11 0 0)
(1.90962e-11 0 0)
(2.02808e-11 0 0)
(2.18682e-11 0 0)
(2.18399e-11 0 0)
(2.40588e-11 0 0)
(2.20175e-11 0 0)
(2.49707e-11 0 0)
(2.39764e-11 0 0)
(2.42033e-11 0 0)
(2.30192e-11 0 0)
(2.61037e-11 0 0)
(2.4499e-11 0 0)
(2.58567e-11 0 0)
(2.60703e-11 0 0)
(2.48838e-11 0 0)
(2.43185e-11 0 0)
(2.4796e-11 0 0)
(2.42e-11 0 0)
(2.59051e-11 0 0)
(2.86872e-11 0 0)
(3.05035e-11 0 0)
(3.18793e-11 0 0)
(3.27328e-11 0 0)
(3.55704e-11 0 0)
(3.63415e-11 0 0)
(3.50777e-11 0 0)
(3.30479e-11 0 0)
(3.34945e-11 0 0)
(3.05676e-11 0 0)
(3.18146e-11 0 0)
(3.182e-11 0 0)
(3.24497e-11 0 0)
(3.05432e-11 0 0)
(3.20292e-11 0 0)
(2.96573e-11 0 0)
(3.22457e-11 0 0)
(3.15827e-11 0 0)
(3.32777e-11 0 0)
(3.32496e-11 0 0)
(3.22845e-11 0 0)
(3.20861e-11 0 0)
(3.23896e-11 0 0)
(3.22018e-11 0 0)
(3.22131e-11 0 0)
(3.46658e-11 0 0)
(3.49965e-11 0 0)
(3.55188e-11 0 0)
(3.71942e-11 0 0)
(4.01648e-11 0 0)
(4.12411e-11 0 0)
(4.08578e-11 0 0)
(3.85766e-11 0 0)
(3.91658e-11 0 0)
(3.4966e-11 0 0)
(3.66407e-11 0 0)
(3.20155e-11 0 0)
(3.39563e-11 0 0)
(2.87092e-11 0 0)
(3.13176e-11 0 0)
(2.68482e-11 0 0)
)
;

boundaryField
{
    sides
    {
        type            zeroGradient;
    }
    empty
    {
        type            empty;
    }
}


// ************************************************************************* //
