/*--------------------------------*- C++ -*----------------------------------*\
| =========                 |                                                 |
| \\      /  F ield         | OpenFOAM: The Open Source CFD Toolbox           |
|  \\    /   O peration     | Version:  4.1                                   |
|   \\  /    A nd           | Web:      www.OpenFOAM.org                      |
|    \\/     M anipulation  |                                                 |
\*---------------------------------------------------------------------------*/
FoamFile
{
    version     2.0;
    format      ascii;
    class       volScalarField;
    location    "0.0066";
    object      mag(U);
}
// * * * * * * * * * * * * * * * * * * * * * * * * * * * * * * * * * * * * * //

dimensions      [0 1 -1 0 0 0 0];

internalField   nonuniform List<scalar> 
1000
(
1.62308e-11
1.69213e-11
1.9548e-11
1.88617e-11
1.78845e-11
1.74176e-11
1.78595e-11
1.67056e-11
1.58766e-11
1.69445e-11
1.60992e-11
1.97782e-11
1.99108e-11
2.27528e-11
2.09494e-11
2.37387e-11
2.0216e-11
2.31131e-11
1.83431e-11
2.14673e-11
1.67853e-11
2.04954e-11
1.86727e-11
2.19225e-11
2.09234e-11
2.19173e-11
1.84614e-11
2.06213e-11
2.166e-11
2.10043e-11
2.02411e-11
1.9555e-11
2.0605e-11
2.1343e-11
2.44272e-11
2.08436e-11
2.29423e-11
1.89208e-11
2.03708e-11
1.5511e-11
1.80491e-11
1.55775e-11
1.69063e-11
1.20487e-11
1.25099e-11
7.74322e-12
9.36764e-12
6.23278e-12
9.45071e-12
4.55541e-12
6.848e-12
3.29404e-12
4.13196e-12
1.66001e-12
1.40422e-12
2.30926e-12
1.44959e-12
1.6893e-12
2.25661e-12
6.42246e-13
1.97512e-12
1.9129e-12
6.47173e-12
4.58427e-13
5.35787e-12
1.61889e-12
4.28426e-12
1.56889e-12
6.93525e-12
4.64887e-13
5.90053e-12
3.96713e-12
5.35952e-12
1.65202e-12
6.32724e-12
1.11174e-12
5.32143e-12
2.34787e-12
4.38013e-12
2.99261e-12
1.73986e-12
2.76208e-13
1.268e-12
5.96021e-13
1.59957e-12
1.65049e-12
4.53359e-12
1.05705e-12
2.48454e-13
5.01338e-12
2.97595e-12
9.77871e-12
5.62869e-12
1.08899e-11
1.05326e-11
1.41351e-11
1.33218e-11
1.39919e-11
1.07951e-11
1.23979e-11
1.19227e-11
1.3712e-11
1.45862e-11
1.20323e-11
1.24152e-11
1.24895e-11
1.17638e-11
1.36884e-11
9.66999e-12
1.07057e-11
1.1514e-11
1.01129e-11
1.19955e-11
1.03832e-11
1.27363e-11
1.08904e-11
1.14448e-11
1.0002e-11
1.2094e-11
1.13686e-11
1.07812e-11
8.22448e-12
6.74939e-12
4.05151e-12
4.33662e-12
6.88901e-12
8.05891e-12
9.7482e-12
6.51421e-12
9.29191e-12
9.23211e-12
1.15795e-11
1.32538e-11
1.32209e-11
1.50301e-11
1.57755e-11
1.59476e-11
1.62542e-11
1.44404e-11
1.46258e-11
1.47792e-11
1.69521e-11
1.77777e-11
1.76031e-11
1.73375e-11
1.83901e-11
1.98779e-11
1.82821e-11
1.88839e-11
1.89399e-11
2.05292e-11
2.01304e-11
2.19535e-11
1.86858e-11
2.03518e-11
1.85919e-11
1.81976e-11
1.84086e-11
1.7208e-11
2.05362e-11
2.07907e-11
2.16703e-11
2.23096e-11
2.26924e-11
2.19897e-11
2.15553e-11
2.11328e-11
2.14868e-11
2.20158e-11
1.95212e-11
1.89073e-11
1.83481e-11
1.90826e-11
2.09127e-11
2.28142e-11
2.6293e-11
3.04473e-11
4.11908e-11
5.51868e-11
9.28556e-11
1.62219e-10
3.06381e-10
5.8311e-10
1.11939e-09
2.14357e-09
4.09034e-09
7.7618e-09
1.46416e-08
2.74408e-08
5.10898e-08
9.4496e-08
1.73603e-07
3.16769e-07
5.74004e-07
1.03287e-06
1.84535e-06
3.27324e-06
5.76359e-06
1.00734e-05
1.74733e-05
3.0077e-05
5.13686e-05
8.70374e-05
0.000146284
0.000243839
0.000403046
0.000660511
0.001073
0.00172756
0.00275606
0.00435589
0.0068186
0.0105691
0.0162179
0.0246284
0.0370032
0.0549871
0.0807893
0.117316
0.168309
0.238465
0.333523
0.460274
0.626469
0.840564
1.11126
1.44679
1.85383
2.3359
2.89152
3.51466
4.19786
4.93467
5.71979
6.54856
7.41661
8.31981
9.25428
10.2165
11.2031
12.2114
13.2387
14.2829
15.3419
16.4142
17.4982
18.5927
19.6967
20.8091
21.9292
23.0562
24.1895
25.3286
26.473
27.6223
28.776
29.9339
31.0956
32.2608
33.4294
34.6011
35.7757
36.953
38.1328
39.3151
40.4995
41.6862
42.8748
44.0653
45.2576
46.4517
47.6473
48.8445
50.0431
51.243
52.4443
53.6469
54.8506
56.0554
57.2613
58.4682
59.6761
60.8848
62.0945
63.3049
64.5162
65.7282
66.9408
68.1541
69.3681
70.5826
71.7977
73.0133
74.2294
75.4459
76.6628
77.8801
79.0978
80.3157
81.534
82.7525
83.9713
85.1902
86.4094
87.6287
88.848
90.0675
91.2871
92.5066
93.7262
94.9458
96.1653
97.3847
98.604
99.8232
101.042
102.261
103.48
104.698
105.916
107.134
108.351
109.568
110.785
112.001
113.216
114.431
115.646
116.86
118.073
119.286
120.498
121.709
122.92
124.129
125.338
126.546
127.752
128.958
130.163
131.366
132.568
133.769
134.969
136.167
137.364
138.559
139.752
140.944
142.134
143.322
144.508
145.692
146.873
148.053
149.229
150.403
151.575
152.743
153.909
155.071
156.229
157.385
158.536
159.683
160.826
161.965
163.098
164.227
165.35
166.468
167.579
168.684
169.783
170.873
171.957
173.031
174.098
175.154
176.201
177.237
178.261
179.274
180.273
181.259
182.229
183.184
184.122
185.041
185.942
186.821
187.679
188.513
189.322
190.105
190.859
191.584
192.278
192.939
193.567
194.158
194.712
195.229
195.707
196.144
196.543
196.902
197.221
197.502
197.746
197.954
198.129
198.274
198.39
198.482
198.553
198.604
198.64
198.663
198.676
198.682
198.683
198.684
198.683
198.682
198.679
198.672
198.662
198.65
198.638
198.627
198.618
198.611
198.605
198.601
198.598
198.595
198.594
198.592
198.591
198.591
198.59
198.589
198.589
198.588
198.587
198.587
198.586
198.585
198.585
198.584
198.584
198.583
198.583
198.582
198.581
198.581
198.58
198.58
198.579
198.579
198.578
198.577
198.577
198.576
198.576
198.575
198.575
198.574
198.574
198.573
198.573
198.572
198.572
198.571
198.571
198.57
198.57
198.569
198.569
198.568
198.568
198.567
198.567
198.566
198.566
198.565
198.565
198.565
198.564
198.564
198.563
198.563
198.562
198.562
198.561
198.561
198.56
198.56
198.56
198.559
198.559
198.559
198.558
198.558
198.558
198.557
198.557
198.557
198.557
198.556
198.556
198.556
198.556
198.556
198.555
198.555
198.555
198.555
198.555
198.555
198.554
198.554
198.554
198.554
198.554
198.554
198.553
198.553
198.553
198.553
198.553
198.552
198.552
198.552
198.552
198.552
198.551
198.551
198.551
198.551
198.551
198.55
198.55
198.55
198.55
198.55
198.55
198.549
198.549
198.549
198.549
198.548
198.548
198.548
198.548
198.548
198.548
198.547
198.547
198.547
198.547
198.547
198.547
198.546
198.546
198.546
198.546
198.546
198.546
198.545
198.545
198.545
198.545
198.545
198.545
198.545
198.544
198.544
198.544
198.544
198.544
198.544
198.544
198.543
198.543
198.543
198.543
198.543
198.543
198.542
198.542
198.542
198.542
198.542
198.541
198.541
198.541
198.541
198.54
198.54
198.54
198.54
198.54
198.54
198.54
198.539
198.539
198.539
198.539
198.539
198.539
198.539
198.539
198.539
198.538
198.539
198.539
198.539
198.538
198.538
198.541
198.547
198.556
198.579
198.647
198.786
198.823
198.697
198.572
198.501
198.488
198.499
198.497
198.492
198.51
198.537
198.538
198.519
198.519
198.542
198.552
198.529
198.511
198.531
198.557
198.545
198.516
198.52
198.55
198.556
198.528
198.511
198.532
198.554
198.535
198.506
198.516
198.547
198.546
198.514
198.506
198.536
198.553
198.527
198.503
198.521
198.551
198.543
198.511
198.507
198.537
198.551
198.524
198.503
198.524
198.551
198.537
198.506
198.511
198.544
198.548
198.516
198.501
198.529
198.553
198.532
198.501
198.512
198.545
198.545
198.512
198.502
198.532
198.55
198.525
198.499
198.517
198.549
198.539
198.504
198.503
198.538
198.55
198.519
198.496
198.52
198.549
198.534
198.501
198.505
198.539
198.545
198.512
198.495
198.524
198.549
198.527
198.494
198.508
198.543
198.54
198.503
198.495
198.529
198.548
198.519
198.49
198.509
198.544
198.535
198.498
198.495
198.53
198.544
198.512
198.488
198.513
198.544
198.526
198.489
198.497
198.535
198.538
198.501
198.484
198.516
198.543
198.518
198.482
198.496
198.534
198.531
198.492
198.481
198.515
198.536
198.506
198.475
198.496
198.532
198.519
198.478
198.477
198.516
198.528
198.488
198.463
198.493
198.526
198.501
198.458
198.467
198.509
198.511
198.467
198.445
198.477
198.506
198.478
198.436
198.445
198.483
198.48
198.434
198.416
198.448
198.469
198.433
198.392
198.406
198.44
198.425
198.374
198.362
198.394
198.403
198.355
198.315
198.333
198.359
198.326
198.269
198.261
198.289
198.28
198.22
198.179
198.192
198.204
198.155
198.091
198.076
198.088
198.06
197.988
197.939
197.935
197.922
197.853
197.777
197.743
197.726
197.667
197.572
197.501
197.461
197.409
197.301
197.186
197.111
197.054
196.938
196.772
196.641
196.553
196.431
196.21
195.988
195.836
195.699
195.435
195.089
194.82
194.614
194.303
193.796
193.282
192.914
192.562
191.745
190.339
188.281
184.382
174.311
136.685
65.689
18.7305
4.77195
1.15233
0.273948
0.0648702
0.0153492
0.00363142
0.000859163
0.000203265
4.80881e-05
1.13763e-05
2.6913e-06
6.36685e-07
1.50633e-07
3.56509e-08
8.45094e-09
2.01788e-09
4.96706e-10
1.36714e-10
5.17307e-11
3.28438e-11
2.60195e-11
2.48108e-11
2.34061e-11
2.2181e-11
2.28009e-11
2.26843e-11
2.23148e-11
2.0797e-11
2.07122e-11
1.9516e-11
2.1393e-11
2.31363e-11
2.37156e-11
2.30344e-11
2.14543e-11
2.05718e-11
2.10629e-11
2.08513e-11
1.86919e-11
2.14149e-11
2.06672e-11
2.08293e-11
2.03233e-11
2.10797e-11
2.16032e-11
2.45089e-11
2.41952e-11
2.52516e-11
2.35271e-11
2.64289e-11
2.63116e-11
2.76526e-11
2.59557e-11
2.53595e-11
2.26685e-11
2.29244e-11
2.39624e-11
2.26833e-11
2.45096e-11
2.25521e-11
2.247e-11
2.40662e-11
2.54735e-11
2.70722e-11
2.86592e-11
2.74738e-11
3.1761e-11
3.18215e-11
3.19932e-11
2.95902e-11
3.29804e-11
3.03382e-11
3.19308e-11
2.98988e-11
2.91305e-11
2.69787e-11
2.82433e-11
2.68635e-11
2.71524e-11
2.71536e-11
2.81362e-11
2.9796e-11
2.95608e-11
2.99828e-11
2.83493e-11
2.85091e-11
2.886e-11
2.73479e-11
3.0047e-11
2.86992e-11
2.8027e-11
2.56888e-11
2.88022e-11
2.63048e-11
2.5201e-11
2.47187e-11
2.39561e-11
2.42632e-11
2.25096e-11
2.1672e-11
2.1996e-11
2.47611e-11
2.40799e-11
2.24205e-11
2.02058e-11
2.01108e-11
1.67957e-11
1.65064e-11
1.73145e-11
1.79589e-11
1.88109e-11
2.09937e-11
1.93504e-11
2.17615e-11
2.01438e-11
1.907e-11
1.85944e-11
2.16575e-11
2.07663e-11
2.03608e-11
1.95916e-11
2.15216e-11
2.21852e-11
2.08201e-11
1.92325e-11
1.90755e-11
2.22623e-11
2.06672e-11
1.91147e-11
1.86877e-11
2.20843e-11
2.17704e-11
2.30298e-11
2.32791e-11
2.47843e-11
2.16884e-11
2.35012e-11
2.08106e-11
2.54184e-11
2.27055e-11
2.58164e-11
2.59009e-11
)
;

boundaryField
{
    sides
    {
        type            calculated;
        value           nonuniform List<scalar> 2(2.59009e-11 1.62308e-11);
    }
    empty
    {
        type            empty;
    }
}


// ************************************************************************* //
