/*--------------------------------*- C++ -*----------------------------------*\
| =========                 |                                                 |
| \\      /  F ield         | OpenFOAM: The Open Source CFD Toolbox           |
|  \\    /   O peration     | Version:  4.1                                   |
|   \\  /    A nd           | Web:      www.OpenFOAM.org                      |
|    \\/     M anipulation  |                                                 |
\*---------------------------------------------------------------------------*/
FoamFile
{
    version     2.0;
    format      ascii;
    class       volScalarField;
    location    "0.0066";
    object      p;
}
// * * * * * * * * * * * * * * * * * * * * * * * * * * * * * * * * * * * * * //

dimensions      [1 -1 -2 0 0 0 0];

internalField   nonuniform List<scalar> 
1000
(
100000
100000
100000
100000
100000
100000
100000
100000
100000
100000
100000
100000
100000
100000
100000
100000
100000
100000
100000
100000
100000
100000
100000
100000
100000
100000
100000
100000
100000
100000
100000
100000
100000
100000
100000
100000
100000
100000
100000
100000
100000
100000
100000
100000
100000
100000
100000
100000
100000
100000
100000
100000
100000
100000
100000
100000
100000
100000
100000
100000
100000
100000
100000
100000
100000
100000
100000
100000
100000
100000
100000
100000
100000
100000
100000
100000
100000
100000
100000
100000
100000
100000
100000
100000
100000
100000
100000
100000
100000
100000
100000
100000
100000
100000
100000
100000
100000
100000
100000
100000
100000
100000
100000
100000
100000
100000
100000
100000
100000
100000
100000
100000
100000
100000
100000
100000
100000
100000
100000
100000
100000
100000
100000
100000
100000
100000
100000
100000
100000
100000
100000
100000
100000
100000
100000
100000
100000
100000
100000
100000
100000
100000
100000
100000
100000
100000
100000
100000
100000
100000
100000
100000
100000
100000
100000
100000
100000
100000
100000
100000
100000
100000
100000
100000
100000
100000
100000
100000
100000
100000
100000
100000
100000
100000
100000
100000
100000
100000
100000
100000
100000
100000
100000
100000
100000
100000
100000
100000
100000
100000
100000
100000
100000
100000
100000
100000
100000
100000
100000
100000
100000
100000
100000
99999.9
99999.9
99999.9
99999.8
99999.6
99999.4
99999
99998.5
99997.6
99996.3
99994.4
99991.5
99987.2
99981
99972
99959.4
99941.7
99917.3
99884.3
99840.3
99782.5
99708.1
99613.9
99497.2
99355.6
99187.9
98994.5
98778
98541.4
98286.8
98016.4
97731.6
97434.2
97125.7
96807.4
96480.7
96146.7
95806.5
95461
95110.9
94757.1
94400
94040.2
93678.2
93314.3
92948.8
92582.2
92214.5
91846.1
91477
91107.6
90737.9
90368.2
89998.4
89628.7
89259.2
88889.9
88521.1
88152.6
87784.7
87417.2
87050.4
86684.2
86318.7
85953.9
85589.9
85226.7
84864.2
84502.6
84141.9
83782.1
83423.2
83065.3
82708.3
82352.2
81997.2
81643.2
81290.2
80938.2
80587.3
80237.4
79888.6
79540.9
79194.2
78848.7
78504.3
78161
77818.8
77477.8
77137.9
76799.1
76461.5
76125.1
75789.8
75455.7
75122.7
74791
74460.4
74131
73802.9
73475.9
73150.1
72825.5
72502.1
72180
71859.1
71539.4
71220.9
70903.6
70587.6
70272.8
69959.2
69646.9
69335.9
69026
68717.5
68410.1
68104.1
67799.3
67495.7
67193.5
66892.5
66592.7
66294.3
65997.1
65701.2
65406.6
65113.3
64821.3
64530.6
64241.2
63953.1
63666.3
63380.8
63096.7
62813.9
62532.5
62252.4
61973.6
61696.3
61420.3
61145.6
60872.4
60600.6
60330.2
60061.2
59793.6
59527.5
59262.8
58999.7
58738
58477.8
58219.2
57962.1
57706.6
57452.7
57200.4
56949.8
56700.8
56453.5
56207.9
55964.2
55722.2
55482.1
55243.8
55007.5
54773.2
54540.9
54310.7
54082.6
53856.8
53633.2
53412
53193.3
52977.1
52763.6
52552.8
52344.9
52139.8
51938
51739.3
51544.1
51352.3
51164.5
50980.3
50800.3
50624.6
50453.3
50286.9
50125.4
49969.1
49818.3
49673.2
49534.1
49401.2
49274.8
49155.2
49042.5
48937.1
48838.9
48748.2
48665
48589.6
48521.6
48460.9
48407.8
48361.4
48321.7
48288.5
48260.8
48238.5
48221.1
48207.4
48197.4
48190.7
48186
48183.3
48182
48181.9
48181.9
48182
48182.2
48182.7
48183.7
48185.5
48187.6
48189.8
48191.8
48193.5
48194.9
48196
48196.8
48197.4
48197.8
48198.2
48198.4
48198.6
48198.7
48198.9
48199
48199.1
48199.2
48199.3
48199.4
48199.5
48199.6
48199.7
48199.8
48199.9
48200
48200.1
48200.2
48200.3
48200.4
48200.5
48200.6
48200.7
48200.8
48200.9
48200.9
48201
48201.1
48201.2
48201.3
48201.4
48201.5
48201.5
48201.6
48201.7
48201.8
48201.9
48201.9
48202
48202.1
48202.2
48202.3
48202.3
48202.4
48202.5
48202.6
48202.6
48202.7
48202.8
48202.9
48202.9
48203
48203.1
48203.2
48203.2
48203.3
48203.4
48203.5
48203.5
48203.6
48203.7
48203.7
48203.8
48203.8
48203.9
48203.9
48204
48204
48204.1
48204.1
48204.1
48204.2
48204.2
48204.2
48204.3
48204.3
48204.3
48204.3
48204.3
48204.4
48204.4
48204.4
48204.4
48204.4
48204.4
48204.4
48204.5
48204.5
48204.5
48204.5
48204.5
48204.5
48204.5
48204.5
48204.6
48204.6
48204.6
48204.6
48204.6
48204.7
48204.7
48204.7
48204.8
48204.8
48204.8
48204.8
48204.9
48204.9
48204.9
48204.9
48204.9
48205
48205
48205
48205
48205
48205
48205
48205
48205
48205.1
48205
48205
48205.1
48205.1
48205.1
48205.1
48205.1
48205.1
48205.1
48205.1
48205.1
48205.1
48205.1
48205.1
48205.1
48205.1
48205.1
48205.2
48205.2
48205.1
48205.1
48205.2
48205.2
48205.2
48205.2
48205.2
48205.3
48205.3
48205.3
48205.3
48205.3
48205.3
48205.4
48205.4
48205.4
48205.4
48205.4
48205.4
48205.4
48205.4
48205.4
48205.5
48205.5
48205.5
48205.4
48205.4
48205.4
48205.5
48205.4
48205.4
48205.4
48205.4
48205.4
48205.4
48205.3
48205.3
48205.3
48205.2
48205.2
48205.2
48205.2
48205.2
48205.2
48205.2
48205.4
48206.1
48207.6
48211.1
48213
48202.6
48202.4
48198.1
48196.6
48208.3
48212.1
48206
48199.5
48205.2
48212.7
48209.1
48199.1
48199.7
48211.7
48213.5
48200.6
48195.5
48207
48215.7
48208.1
48195.9
48199.3
48213.9
48214.1
48199.6
48195.6
48208.2
48215.8
48205.7
48194.5
48201.2
48215.4
48212.7
48196.4
48195.8
48211.8
48216.1
48202.2
48194
48204.4
48216.2
48211.2
48195.7
48196.5
48212.6
48215.6
48201
48194.5
48206.4
48216.2
48208
48194.7
48199.1
48214.9
48214.6
48197.7
48194.2
48209.5
48217
48205.4
48194
48200.8
48215.3
48213.1
48196.8
48195.3
48211.1
48216.3
48202.3
48193.4
48204.3
48216.7
48210.1
48194.3
48196.5
48214
48216.1
48199.4
48193.1
48206.5
48216.6
48207.8
48194
48198.1
48214.6
48214.6
48197.2
48193.3
48209.2
48217
48204.2
48192.6
48201.1
48216.2
48212.4
48194.4
48193.9
48212.2
48217.1
48200.8
48191.7
48203.4
48216.5
48210.3
48193.5
48194.9
48213.2
48215.8
48198.3
48191.7
48206.4
48217
48206.3
48191.7
48197.3
48215.4
48214.5
48194.8
48191.2
48209.2
48217.3
48203
48190.5
48199.1
48215.7
48212.4
48193
48191.6
48210.6
48216.4
48199.5
48189.3
48201.9
48216.3
48208.4
48189.9
48192.6
48213.2
48215.1
48194.1
48187.5
48205.3
48216.7
48202.9
48186.6
48193.5
48213.8
48212.5
48190.1
48185.8
48204.8
48214.2
48199
48184.5
48192.3
48210.9
48207.8
48186
48183.4
48202.9
48210
48191.8
48179.7
48190.4
48206.6
48199.2
48178.1
48178.4
48198.9
48202.2
48179.6
48170.8
48185.3
48198.5
48184.5
48165.6
48168.7
48188.6
48187.4
48162
48155.9
48170.7
48180.9
48161.9
48146
48149.1
48165.6
48160.2
48135.2
48130.7
48141.2
48147.7
48124.6
48111.7
48112.2
48123
48112.3
48087.4
48082.5
48085.9
48089.4
48058.4
48042.4
48039
48045.5
48026.2
47987.1
47977.9
47980.4
47981.2
47922.4
47897.3
47891.5
47900.5
47846.6
47778.2
47760.6
47765.3
47742.3
47609.7
47565.8
47556.6
47557.7
47372.6
47163.8
46961.7
46497.6
45296.2
41096.2
30350.2
26553.3
25390.2
25093.8
25022.3
25005.3
25001.2
25000.3
25000.1
25000
25000
25000
25000
25000
25000
25000
25000
25000
25000
25000
25000
25000
25000
25000
25000
25000
25000
25000
25000
25000
25000
25000
25000
25000
25000
25000
25000
25000
25000
25000
25000
25000
25000
25000
25000
25000
25000
25000
25000
25000
25000
25000
25000
25000
25000
25000
25000
25000
25000
25000
25000
25000
25000
25000
25000
25000
25000
25000
25000
25000
25000
25000
25000
25000
25000
25000
25000
25000
25000
25000
25000
25000
25000
25000
25000
25000
25000
25000
25000
25000
25000
25000
25000
25000
25000
25000
25000
25000
25000
25000
25000
25000
25000
25000
25000
25000
25000
25000
25000
25000
25000
25000
25000
25000
25000
25000
25000
25000
25000
25000
25000
25000
25000
25000
25000
25000
25000
25000
25000
25000
25000
25000
25000
25000
25000
25000
25000
25000
25000
25000
25000
25000
25000
25000
)
;

boundaryField
{
    sides
    {
        type            zeroGradient;
    }
    empty
    {
        type            empty;
    }
}


// ************************************************************************* //
