/*--------------------------------*- C++ -*----------------------------------*\
| =========                 |                                                 |
| \\      /  F ield         | OpenFOAM: The Open Source CFD Toolbox           |
|  \\    /   O peration     | Version:  4.1                                   |
|   \\  /    A nd           | Web:      www.OpenFOAM.org                      |
|    \\/     M anipulation  |                                                 |
\*---------------------------------------------------------------------------*/
FoamFile
{
    version     2.0;
    format      ascii;
    class       surfaceScalarField;
    location    "0.0066";
    object      phi;
}
// * * * * * * * * * * * * * * * * * * * * * * * * * * * * * * * * * * * * * //

dimensions      [1 0 -1 0 0 0 0];

internalField   nonuniform List<scalar> 
999
(
-5.71276e-11
-6.41975e-11
-6.60165e-11
-6.35154e-11
-6.25633e-11
-6.02824e-11
-6.15685e-11
-5.55929e-11
-5.52589e-11
-5.73692e-11
-6.38636e-11
-6.83542e-11
-7.55804e-11
-7.44222e-11
-7.86571e-11
-7.45644e-11
-7.75486e-11
-7.10187e-11
-6.99245e-11
-6.46878e-11
-6.69615e-11
-6.67484e-11
-6.94698e-11
-7.57723e-11
-7.47846e-11
-7.02443e-11
-6.78995e-11
-7.31575e-11
-7.40883e-11
-7.3122e-11
-6.75229e-11
-6.92992e-11
-7.27596e-11
-7.99929e-11
-7.97016e-11
-7.5481e-11
-7.27027e-11
-6.80984e-11
-6.30891e-11
-5.86482e-11
-5.71134e-11
-5.80513e-11
-4.99512e-11
-4.15952e-11
-3.48024e-11
-3.13847e-11
-2.5473e-11
-2.85993e-11
-2.38742e-11
-1.90639e-11
-1.80194e-11
-1.3209e-11
-1.031e-11
-4.77485e-12
1.16529e-12
6.95621e-12
6.25988e-12
6.21014e-12
3.07665e-12
2.58638e-12
5.94724e-12
1.58522e-11
1.12834e-11
9.57101e-12
1.29106e-11
1.0715e-11
9.40048e-12
1.54543e-11
1.04876e-11
1.05658e-11
1.64775e-11
1.58806e-11
1.20224e-11
1.33724e-11
1.42677e-11
1.04308e-11
1.23848e-11
1.19442e-11
1.37774e-11
7.95097e-12
2.79243e-12
1.29319e-12
4.09983e-12
-2.01084e-12
2.84217e-14
-5.45697e-12
-6.11777e-12
1.82609e-12
7.38964e-12
1.45377e-11
2.12097e-11
2.77041e-11
2.82654e-11
3.6394e-11
4.46718e-11
4.68674e-11
4.79048e-11
4.28884e-11
4.04867e-11
4.11902e-11
4.59863e-11
4.80682e-11
4.73861e-11
4.19718e-11
4.2391e-11
4.29097e-11
4.52545e-11
4.01457e-11
3.56479e-11
3.79714e-11
3.80425e-11
3.79217e-11
3.98757e-11
4.13394e-11
4.02451e-11
3.71045e-11
3.79785e-11
3.89591e-11
4.16449e-11
3.71614e-11
3.34026e-11
2.55937e-11
1.95044e-11
1.40403e-11
1.9952e-11
2.56719e-11
3.21165e-11
2.74767e-11
2.77396e-11
3.04681e-11
3.76517e-11
4.23555e-11
4.7585e-11
4.74003e-11
5.48539e-11
5.60476e-11
5.51807e-11
5.4051e-11
5.10525e-11
4.99085e-11
5.46265e-11
6.14051e-11
6.09575e-11
6.12985e-11
6.30394e-11
6.41549e-11
6.90363e-11
6.2343e-11
6.75371e-11
6.85318e-11
7.04148e-11
7.22906e-11
7.19922e-11
6.61871e-11
6.80629e-11
6.39986e-11
6.50999e-11
6.06022e-11
6.55689e-11
7.14095e-11
7.46567e-11
7.42517e-11
8.06537e-11
7.80531e-11
7.32996e-11
7.53175e-11
7.32783e-11
7.73142e-11
7.08624e-11
6.63505e-11
6.56613e-11
6.47589e-11
6.91713e-11
7.67528e-11
8.28493e-11
9.92983e-11
1.21062e-10
1.61734e-10
2.47645e-10
4.257e-10
7.82201e-10
1.48333e-09
2.84124e-09
5.44772e-09
1.04148e-08
1.98139e-08
3.74761e-08
7.0443e-08
1.31541e-07
2.44022e-07
4.49671e-07
8.23038e-07
1.49609e-06
2.70065e-06
4.84074e-06
8.61475e-06
1.522e-05
2.6692e-05
4.64611e-05
8.0258e-05
0.000137569
0.000233955
0.00039469
0.00066044
0.00109596
0.00180329
0.00294153
0.00475596
0.00762035
0.0120974
0.0190237
0.0296264
0.0456808
0.0697178
0.105289
0.157294
0.232375
0.339362
0.489741
0.698114
0.982561
1.36482
1.87015
2.52673
3.36442
4.41279
5.69809
7.23891
9.03955
11.0823
13.3368
15.7756
18.377
21.1229
23.9962
26.981
30.0622
33.226
36.4597
39.7521
43.0933
46.4745
49.8881
53.3277
56.7876
60.2629
63.7494
67.2435
70.742
74.2422
77.7418
81.2387
84.7311
88.2175
91.6963
95.1664
98.6268
102.076
105.514
108.94
112.352
115.751
119.135
122.505
125.86
129.199
132.522
135.828
139.118
142.391
145.647
148.886
152.106
155.31
158.495
161.662
164.811
167.942
171.054
174.147
177.222
180.278
183.315
186.333
189.333
192.313
195.274
198.216
201.139
204.043
206.927
209.793
212.639
215.465
218.272
221.06
223.829
226.578
229.308
232.019
234.71
237.382
240.035
242.668
245.283
247.877
250.453
253.009
255.546
258.064
260.563
263.042
265.502
267.943
270.366
272.769
275.153
277.517
279.863
282.19
284.499
286.788
289.058
291.309
293.542
295.756
297.951
300.128
302.285
304.424
306.545
308.647
310.73
312.794
314.841
316.868
318.877
320.868
322.84
324.794
326.73
328.647
330.546
332.426
334.288
336.132
337.957
339.764
341.553
343.323
345.076
346.809
348.525
350.222
351.9
353.56
355.202
356.825
358.43
360.015
361.583
363.131
364.661
366.171
367.663
369.135
370.588
372.022
373.436
374.831
376.205
377.559
378.893
380.206
381.499
382.769
384.021
385.245
386.456
387.632
388.801
389.926
391.05
392.126
393.195
394.233
395.229
396.236
397.158
398.116
398.988
399.856
400.708
401.473
402.277
402.987
403.678
404.37
404.952
405.564
406.114
406.589
407.093
407.505
407.877
408.26
408.547
408.816
409.078
409.26
409.432
409.591
409.691
409.782
409.864
409.909
409.941
409.974
409.988
409.99
409.992
409.993
409.991
409.987
409.984
409.978
409.974
409.962
409.951
409.941
409.931
409.924
409.918
409.913
409.909
409.906
409.903
409.901
409.899
409.898
409.896
409.895
409.894
409.893
409.891
409.89
409.888
409.887
409.886
409.884
409.883
409.882
409.881
409.879
409.877
409.876
409.875
409.873
409.872
409.871
409.869
409.868
409.867
409.865
409.864
409.862
409.861
409.859
409.858
409.857
409.855
409.854
409.852
409.851
409.849
409.848
409.846
409.845
409.843
409.842
409.84
409.838
409.837
409.835
409.833
409.832
409.83
409.829
409.827
409.825
409.823
409.822
409.82
409.818
409.816
409.815
409.813
409.811
409.809
409.807
409.806
409.804
409.802
409.8
409.798
409.796
409.795
409.793
409.791
409.789
409.787
409.786
409.783
409.781
409.779
409.778
409.775
409.773
409.771
409.769
409.767
409.764
409.762
409.76
409.758
409.755
409.752
409.75
409.748
409.746
409.742
409.739
409.737
409.735
409.732
409.728
409.726
409.724
409.721
409.717
409.713
409.711
409.709
409.705
409.701
409.697
409.694
409.692
409.689
409.683
409.678
409.675
409.672
409.669
409.664
409.658
409.653
409.65
409.644
409.64
409.637
409.63
409.624
409.621
409.618
409.613
409.606
409.597
409.589
409.583
409.58
409.578
409.571
409.56
409.553
409.543
409.533
409.529
409.528
409.522
409.509
409.494
409.481
409.473
409.469
409.465
409.457
409.44
409.419
409.402
409.391
409.385
409.379
409.37
409.352
409.325
409.299
409.279
409.268
409.262
409.254
409.239
409.202
409.158
409.116
409.081
409.057
409.045
409.037
409.028
409.005
408.933
408.82
408.71
408.618
408.55
408.511
408.492
408.485
408.501
408.622
408.767
408.845
408.856
408.736
407.333
399.544
379.161
358.788
340.597
325.359
312.854
302.655
294.435
288.342
284.061
280.79
278.146
276.407
275.48
274.863
274.199
273.631
273.492
273.689
273.627
273.213
273.117
273.442
273.558
273.331
273.119
273.224
273.532
273.505
273.134
273.104
273.502
273.583
273.24
273.09
273.335
273.576
273.452
273.123
273.154
273.54
273.592
273.207
273.101
273.384
273.587
273.43
273.133
273.202
273.559
273.569
273.174
273.111
273.494
273.62
273.336
273.108
273.276
273.601
273.552
273.16
273.124
273.534
273.626
273.288
273.117
273.342
273.611
273.495
273.142
273.169
273.579
273.629
273.199
273.093
273.453
273.643
273.427
273.126
273.212
273.59
273.606
273.187
273.11
273.502
273.645
273.361
273.114
273.277
273.62
273.568
273.155
273.123
273.572
273.662
273.254
273.092
273.373
273.648
273.508
273.132
273.151
273.59
273.654
273.212
273.093
273.434
273.651
273.442
273.118
273.209
273.617
273.621
273.159
273.086
273.541
273.677
273.328
273.083
273.281
273.645
273.579
273.132
273.096
273.577
273.674
273.259
273.074
273.344
273.653
273.512
273.102
273.132
273.608
273.663
273.159
273.041
273.463
273.683
273.393
273.048
273.19
273.643
273.622
273.093
273.019
273.541
273.69
273.289
273.017
273.211
273.624
273.571
273.07
273.016
273.523
273.648
273.203
272.987
273.234
273.597
273.468
273.004
273
273.506
273.589
273.054
272.915
273.264
273.555
273.283
272.888
272.963
273.45
273.455
272.877
272.788
273.229
273.445
273.008
272.72
272.846
273.284
273.209
272.668
272.609
273.005
273.179
272.647
272.471
272.579
272.94
272.768
272.306
272.283
272.542
272.699
272.081
271.98
272.034
272.322
272.062
271.551
271.549
271.726
271.929
270.977
270.855
270.935
271.341
270.665
269.87
269.863
270.212
270.372
268.58
268.388
268.618
269.381
267.156
266.127
266.187
267.053
266.078
262.03
260.505
257.488
252.821
231.006
107.497
35.1363
9.27163
2.2635
0.539689
0.127871
0.030256
0.00715795
0.00169347
0.000400655
9.47881e-05
2.24246e-05
5.30503e-06
1.25501e-06
2.96904e-07
7.02502e-08
1.66322e-08
3.94913e-09
9.49564e-10
2.40259e-10
7.25411e-11
3.37366e-11
2.46381e-11
2.21849e-11
2.04565e-11
2.00817e-11
1.92113e-11
2.02167e-11
1.94547e-11
1.92131e-11
1.74758e-11
1.77849e-11
1.74776e-11
1.95151e-11
2.06466e-11
2.00888e-11
1.96057e-11
1.78471e-11
1.83391e-11
1.84652e-11
1.69109e-11
1.74687e-11
1.84226e-11
1.78471e-11
1.81899e-11
1.79661e-11
1.83569e-11
1.9698e-11
2.15135e-11
2.18119e-11
2.07958e-11
2.20712e-11
2.28191e-11
2.36398e-11
2.33982e-11
2.20766e-11
2.07567e-11
2.0119e-11
2.00426e-11
2.02132e-11
2.08082e-11
2.08455e-11
1.89733e-11
2.06395e-11
2.13181e-11
2.30322e-11
2.43272e-11
2.40483e-11
2.58975e-11
2.80203e-11
2.77769e-11
2.62421e-11
2.76188e-11
2.72351e-11
2.69313e-11
2.7331e-11
2.55387e-11
2.43698e-11
2.41247e-11
2.40838e-11
2.26841e-11
2.4416e-11
2.34408e-11
2.52083e-11
2.56861e-11
2.63309e-11
2.4917e-11
2.48939e-11
2.50342e-11
2.44587e-11
2.45457e-11
2.61196e-11
2.48512e-11
2.2931e-11
2.38991e-11
2.38582e-11
2.2407e-11
2.1565e-11
2.08882e-11
2.09823e-11
2.08882e-11
1.8705e-11
1.93143e-11
1.98241e-11
2.15064e-11
2.0286e-11
1.86535e-11
1.75255e-11
1.61737e-11
1.42997e-11
1.47882e-11
1.53069e-11
1.57154e-11
1.75771e-11
1.78542e-11
1.776e-11
1.80513e-11
1.72502e-11
1.61986e-11
1.75664e-11
1.8515e-11
1.81224e-11
1.70477e-11
1.80229e-11
1.88596e-11
1.89999e-11
1.72982e-11
1.63247e-11
1.82698e-11
1.83853e-11
1.74953e-11
1.62661e-11
1.73372e-11
1.92824e-11
1.95062e-11
2.01847e-11
2.09521e-11
2.01155e-11
1.94635e-11
1.93783e-11
1.97282e-11
2.12932e-11
2.07638e-11
2.2748e-11
)
;

boundaryField
{
    sides
    {
        type            calculated;
        value           nonuniform List<scalar> 2(2.25041e-11 5.64045e-11);
    }
    empty
    {
        type            empty;
        value           nonuniform 0();
    }
}


// ************************************************************************* //
