/*--------------------------------*- C++ -*----------------------------------*\
| =========                 |                                                 |
| \\      /  F ield         | OpenFOAM: The Open Source CFD Toolbox           |
|  \\    /   O peration     | Version:  4.1                                   |
|   \\  /    A nd           | Web:      www.OpenFOAM.org                      |
|    \\/     M anipulation  |                                                 |
\*---------------------------------------------------------------------------*/
FoamFile
{
    version     2.0;
    format      ascii;
    class       volScalarField;
    location    "0.0066";
    object      T;
}
// * * * * * * * * * * * * * * * * * * * * * * * * * * * * * * * * * * * * * //

dimensions      [0 0 0 1 0 0 0];

internalField   nonuniform List<scalar> 
1000
(
400
400
400
400
400
400
400
400
400
400
400
400
400
400
400
400
400
400
400
400
400
400
400
400
400
400
400
400
400
400
400
400
400
400
400
400
400
400
400
400
400
400
400
400
400
400
400
400
400
400
400
400
400
400
400
400
400
400
400
400
400
400
400
400
400
400
400
400
400
400
400
400
400
400
400
400
400
400
400
400
400
400
400
400
400
400
400
400
400
400
400
400
400
400
400
400
400
400
400
400
400
400
400
400
400
400
400
400
400
400
400
400
400
400
400
400
400
400
400
400
400
400
400
400
400
400
400
400
400
400
400
400
400
400
400
400
400
400
400
400
400
400
400
400
400
400
400
400
400
400
400
400
400
400
400
400
400
400
400
400
400
400
400
400
400
400
400
400
400
400
400
400
400
400
400
400
400
400
400
400
400
400
400
400
400
400
400
400
400
400
400
400
400
400
400
400
400
400
400
400
400
400
400
400
400
400
400
400
399.999
399.999
399.998
399.997
399.996
399.994
399.99
399.985
399.978
399.968
399.953
399.933
399.905
399.867
399.817
399.751
399.665
399.557
399.423
399.261
399.067
398.845
398.595
398.321
398.026
397.713
397.382
397.035
396.675
396.302
395.919
395.526
395.125
394.717
394.302
393.882
393.457
393.027
392.593
392.156
391.716
391.273
390.828
390.38
389.931
389.48
389.027
388.572
388.117
387.66
387.202
386.743
386.283
385.822
385.36
384.898
384.435
383.972
383.508
383.043
382.578
382.113
381.647
381.181
380.715
380.248
379.781
379.314
378.847
378.379
377.912
377.444
376.976
376.508
376.04
375.573
375.105
374.637
374.169
373.701
373.233
372.765
372.297
371.829
371.362
370.894
370.427
369.96
369.493
369.026
368.559
368.092
367.626
367.16
366.694
366.228
365.763
365.297
364.832
364.368
363.903
363.439
362.975
362.512
362.049
361.586
361.123
360.661
360.199
359.738
359.277
358.816
358.356
357.896
357.437
356.978
356.519
356.061
355.604
355.147
354.69
354.234
353.779
353.324
352.87
352.416
351.963
351.511
351.059
350.608
350.157
349.707
349.258
348.81
348.362
347.916
347.47
347.024
346.58
346.137
345.694
345.253
344.812
344.373
343.935
343.497
343.061
342.626
342.193
341.76
341.329
340.9
340.471
340.045
339.62
339.196
338.775
338.355
337.937
337.521
337.108
336.696
336.287
335.88
335.476
335.074
334.677
334.28
333.892
333.496
333.124
332.721
332.379
331.955
331.658
331.203
330.956
330.483
330.254
329.82
329.541
329.216
328.843
328.625
328.226
328.001
327.711
327.385
327.214
326.883
326.676
326.486
326.196
326.068
325.863
325.652
325.561
325.377
325.24
325.172
325.031
324.948
324.903
324.811
324.764
324.742
324.693
324.667
324.66
324.644
324.631
324.631
324.631
324.629
324.629
324.63
324.632
324.633
324.635
324.639
324.645
324.648
324.653
324.657
324.659
324.662
324.664
324.665
324.667
324.668
324.669
324.669
324.671
324.671
324.672
324.673
324.674
324.674
324.675
324.676
324.676
324.677
324.678
324.679
324.679
324.68
324.681
324.682
324.683
324.684
324.684
324.685
324.686
324.687
324.687
324.688
324.689
324.69
324.691
324.692
324.693
324.693
324.694
324.695
324.696
324.697
324.698
324.699
324.7
324.701
324.702
324.702
324.703
324.705
324.706
324.706
324.707
324.709
324.709
324.71
324.712
324.713
324.714
324.715
324.716
324.717
324.718
324.72
324.721
324.722
324.723
324.724
324.725
324.727
324.728
324.729
324.73
324.732
324.733
324.734
324.735
324.737
324.738
324.739
324.74
324.742
324.744
324.745
324.746
324.748
324.75
324.751
324.752
324.754
324.756
324.757
324.758
324.76
324.762
324.764
324.765
324.767
324.769
324.772
324.773
324.774
324.776
324.779
324.782
324.783
324.784
324.787
324.79
324.793
324.794
324.796
324.799
324.803
324.805
324.806
324.808
324.812
324.816
324.819
324.821
324.822
324.825
324.83
324.835
324.838
324.839
324.841
324.845
324.851
324.856
324.859
324.861
324.863
324.868
324.874
324.881
324.886
324.889
324.891
324.894
324.9
324.909
324.917
324.923
324.926
324.928
324.932
324.94
324.951
324.962
324.97
324.975
324.977
324.981
324.99
325.006
325.021
325.033
325.04
325.043
325.047
325.056
325.077
325.099
325.117
325.129
325.135
325.139
325.147
325.166
325.2
325.237
325.269
325.292
325.305
325.312
325.317
325.327
325.36
325.441
325.532
325.615
325.68
325.722
325.744
325.75
325.744
325.693
325.581
325.491
325.445
325.458
325.912
329.112
341.293
360.945
380.898
400.112
417.794
433.33
446.424
457.064
465.451
471.844
476.541
479.892
482.261
483.919
485.009
485.68
486.117
486.432
486.632
486.715
486.736
486.776
486.837
486.847
486.805
486.788
486.82
486.844
486.816
486.774
486.786
486.83
486.824
486.77
486.761
486.806
486.821
486.779
486.748
486.772
486.809
486.797
486.744
486.74
486.787
486.798
486.754
486.728
486.758
486.79
486.769
486.722
486.728
486.777
486.779
486.726
486.709
486.751
486.776
486.745
486.704
486.717
486.764
486.761
486.708
486.698
486.743
486.762
486.722
486.69
486.716
486.756
486.742
486.689
486.689
486.743
486.753
486.703
486.679
486.713
486.747
486.726
486.679
486.684
486.736
486.74
486.686
486.669
486.713
486.74
486.706
486.665
486.683
486.732
486.727
486.669
486.661
486.715
486.734
486.688
486.655
486.683
486.727
486.714
486.658
486.656
486.712
486.725
486.673
486.648
486.687
486.724
486.697
486.648
486.657
486.715
486.718
486.657
486.641
486.692
486.72
486.683
486.639
486.658
486.712
486.708
486.646
486.636
486.691
486.713
486.666
486.629
486.661
486.709
486.692
486.631
486.632
486.697
486.708
486.646
486.62
486.669
486.708
486.673
486.618
486.631
486.696
486.699
486.629
486.611
486.664
486.698
486.658
486.609
486.625
486.686
486.683
486.614
486.6
486.657
486.683
486.633
486.591
486.616
486.669
486.655
486.586
486.581
486.643
486.66
486.594
486.562
486.599
486.645
486.611
486.548
486.551
486.614
486.618
486.539
486.516
486.556
486.593
486.543
486.488
486.492
486.544
486.537
486.457
486.443
486.473
486.5
486.433
486.387
486.385
486.419
486.398
486.317
486.303
486.309
486.326
486.238
486.183
486.17
486.192
486.154
486.024
485.995
486.002
486.015
485.833
485.764
485.757
485.774
485.625
485.417
485.361
485.353
485.344
484.969
484.778
484.716
484.808
484.288
483.543
482.931
481.56
478.115
467.513
424.244
407.107
401.788
400.43
400.102
400.024
400.006
400.001
400
400
400
400
400
400
400
400
400
400
400
400
400
400
400
400
400
400
400
400
400
400
400
400
400
400
400
400
400
400
400
400
400
400
400
400
400
400
400
400
400
400
400
400
400
400
400
400
400
400
400
400
400
400
400
400
400
400
400
400
400
400
400
400
400
400
400
400
400
400
400
400
400
400
400
400
400
400
400
400
400
400
400
400
400
400
400
400
400
400
400
400
400
400
400
400
400
400
400
400
400
400
400
400
400
400
400
400
400
400
400
400
400
400
400
400
400
400
400
400
400
400
400
400
400
400
400
400
400
400
400
400
400
400
400
400
)
;

boundaryField
{
    sides
    {
        type            zeroGradient;
    }
    empty
    {
        type            empty;
    }
}


// ************************************************************************* //
