/*--------------------------------*- C++ -*----------------------------------*\
| =========                 |                                                 |
| \\      /  F ield         | OpenFOAM: The Open Source CFD Toolbox           |
|  \\    /   O peration     | Version:  4.1                                   |
|   \\  /    A nd           | Web:      www.OpenFOAM.org                      |
|    \\/     M anipulation  |                                                 |
\*---------------------------------------------------------------------------*/
FoamFile
{
    version     2.0;
    format      ascii;
    class       volVectorField;
    location    "0.0066";
    object      U;
}
// * * * * * * * * * * * * * * * * * * * * * * * * * * * * * * * * * * * * * //

dimensions      [0 1 -1 0 0 0 0];

internalField   nonuniform List<vector> 
1000
(
(-1.62308e-11 0 0)
(-1.69213e-11 0 0)
(-1.9548e-11 0 0)
(-1.88617e-11 0 0)
(-1.78845e-11 0 0)
(-1.74176e-11 0 0)
(-1.78595e-11 0 0)
(-1.67056e-11 0 0)
(-1.58766e-11 0 0)
(-1.69445e-11 0 0)
(-1.60992e-11 0 0)
(-1.97782e-11 0 0)
(-1.99108e-11 0 0)
(-2.27528e-11 0 0)
(-2.09494e-11 0 0)
(-2.37387e-11 0 0)
(-2.0216e-11 0 0)
(-2.31131e-11 0 0)
(-1.83431e-11 0 0)
(-2.14673e-11 0 0)
(-1.67853e-11 0 0)
(-2.04954e-11 0 0)
(-1.86727e-11 0 0)
(-2.19225e-11 0 0)
(-2.09234e-11 0 0)
(-2.19173e-11 0 0)
(-1.84614e-11 0 0)
(-2.06213e-11 0 0)
(-2.166e-11 0 0)
(-2.10043e-11 0 0)
(-2.02411e-11 0 0)
(-1.9555e-11 0 0)
(-2.0605e-11 0 0)
(-2.1343e-11 0 0)
(-2.44272e-11 0 0)
(-2.08436e-11 0 0)
(-2.29423e-11 0 0)
(-1.89208e-11 0 0)
(-2.03708e-11 0 0)
(-1.5511e-11 0 0)
(-1.80491e-11 0 0)
(-1.55775e-11 0 0)
(-1.69063e-11 0 0)
(-1.20487e-11 0 0)
(-1.25099e-11 0 0)
(-7.74322e-12 0 0)
(-9.36764e-12 0 0)
(-6.23278e-12 0 0)
(-9.45071e-12 0 0)
(-4.55541e-12 0 0)
(-6.848e-12 0 0)
(-3.29404e-12 0 0)
(-4.13196e-12 0 0)
(-1.66001e-12 0 0)
(-1.40422e-12 0 0)
(2.30926e-12 0 0)
(1.44959e-12 0 0)
(1.6893e-12 0 0)
(2.25661e-12 0 0)
(-6.42246e-13 0 0)
(1.97512e-12 0 0)
(1.9129e-12 0 0)
(6.47173e-12 0 0)
(4.58427e-13 0 0)
(5.35787e-12 0 0)
(1.61889e-12 0 0)
(4.28426e-12 0 0)
(1.56889e-12 0 0)
(6.93525e-12 0 0)
(-4.64887e-13 0 0)
(5.90053e-12 0 0)
(3.96713e-12 0 0)
(5.35952e-12 0 0)
(1.65202e-12 0 0)
(6.32724e-12 0 0)
(1.11174e-12 0 0)
(5.32143e-12 0 0)
(2.34787e-12 0 0)
(4.38013e-12 0 0)
(2.99261e-12 0 0)
(1.73986e-12 0 0)
(-2.76208e-13 0 0)
(1.268e-12 0 0)
(5.96021e-13 0 0)
(-1.59957e-12 0 0)
(1.65049e-12 0 0)
(-4.53359e-12 0 0)
(1.05705e-12 0 0)
(-2.48454e-13 0 0)
(5.01338e-12 0 0)
(2.97595e-12 0 0)
(9.77871e-12 0 0)
(5.62869e-12 0 0)
(1.08899e-11 0 0)
(1.05326e-11 0 0)
(1.41351e-11 0 0)
(1.33218e-11 0 0)
(1.39919e-11 0 0)
(1.07951e-11 0 0)
(1.23979e-11 0 0)
(1.19227e-11 0 0)
(1.3712e-11 0 0)
(1.45862e-11 0 0)
(1.20323e-11 0 0)
(1.24152e-11 0 0)
(1.24895e-11 0 0)
(1.17638e-11 0 0)
(1.36884e-11 0 0)
(9.66999e-12 0 0)
(1.07057e-11 0 0)
(1.1514e-11 0 0)
(1.01129e-11 0 0)
(1.19955e-11 0 0)
(1.03832e-11 0 0)
(1.27363e-11 0 0)
(1.08904e-11 0 0)
(1.14448e-11 0 0)
(1.0002e-11 0 0)
(1.2094e-11 0 0)
(1.13686e-11 0 0)
(1.07812e-11 0 0)
(8.22448e-12 0 0)
(6.74939e-12 0 0)
(4.05151e-12 0 0)
(4.33662e-12 0 0)
(6.88901e-12 0 0)
(8.05891e-12 0 0)
(9.7482e-12 0 0)
(6.51421e-12 0 0)
(9.29191e-12 0 0)
(9.23211e-12 0 0)
(1.15795e-11 0 0)
(1.32538e-11 0 0)
(1.32209e-11 0 0)
(1.50301e-11 0 0)
(1.57755e-11 0 0)
(1.59476e-11 0 0)
(1.62542e-11 0 0)
(1.44404e-11 0 0)
(1.46258e-11 0 0)
(1.47792e-11 0 0)
(1.69521e-11 0 0)
(1.77777e-11 0 0)
(1.76031e-11 0 0)
(1.73375e-11 0 0)
(1.83901e-11 0 0)
(1.98779e-11 0 0)
(1.82821e-11 0 0)
(1.88839e-11 0 0)
(1.89399e-11 0 0)
(2.05292e-11 0 0)
(2.01304e-11 0 0)
(2.19535e-11 0 0)
(1.86858e-11 0 0)
(2.03518e-11 0 0)
(1.85919e-11 0 0)
(1.81976e-11 0 0)
(1.84086e-11 0 0)
(1.7208e-11 0 0)
(2.05362e-11 0 0)
(2.07907e-11 0 0)
(2.16703e-11 0 0)
(2.23096e-11 0 0)
(2.26924e-11 0 0)
(2.19897e-11 0 0)
(2.15553e-11 0 0)
(2.11328e-11 0 0)
(2.14868e-11 0 0)
(2.20158e-11 0 0)
(1.95212e-11 0 0)
(1.89073e-11 0 0)
(1.83481e-11 0 0)
(1.90826e-11 0 0)
(2.09127e-11 0 0)
(2.28142e-11 0 0)
(2.6293e-11 0 0)
(3.04473e-11 0 0)
(4.11908e-11 0 0)
(5.51868e-11 0 0)
(9.28556e-11 0 0)
(1.62219e-10 0 0)
(3.06381e-10 0 0)
(5.8311e-10 0 0)
(1.11939e-09 0 0)
(2.14357e-09 0 0)
(4.09034e-09 0 0)
(7.7618e-09 0 0)
(1.46416e-08 0 0)
(2.74408e-08 0 0)
(5.10898e-08 0 0)
(9.4496e-08 0 0)
(1.73603e-07 0 0)
(3.16769e-07 0 0)
(5.74004e-07 0 0)
(1.03287e-06 0 0)
(1.84535e-06 0 0)
(3.27324e-06 0 0)
(5.76359e-06 0 0)
(1.00734e-05 0 0)
(1.74733e-05 0 0)
(3.0077e-05 0 0)
(5.13686e-05 0 0)
(8.70374e-05 0 0)
(0.000146284 0 0)
(0.000243839 0 0)
(0.000403046 0 0)
(0.000660511 0 0)
(0.001073 0 0)
(0.00172756 0 0)
(0.00275606 0 0)
(0.00435589 0 0)
(0.0068186 0 0)
(0.0105691 0 0)
(0.0162179 0 0)
(0.0246284 0 0)
(0.0370032 0 0)
(0.0549871 0 0)
(0.0807893 0 0)
(0.117316 0 0)
(0.168309 0 0)
(0.238465 0 0)
(0.333523 0 0)
(0.460274 0 0)
(0.626469 0 0)
(0.840564 0 0)
(1.11126 0 0)
(1.44679 0 0)
(1.85383 0 0)
(2.3359 0 0)
(2.89152 0 0)
(3.51466 0 0)
(4.19786 0 0)
(4.93467 0 0)
(5.71979 0 0)
(6.54856 0 0)
(7.41661 0 0)
(8.31981 0 0)
(9.25428 0 0)
(10.2165 0 0)
(11.2031 0 0)
(12.2114 0 0)
(13.2387 0 0)
(14.2829 0 0)
(15.3419 0 0)
(16.4142 0 0)
(17.4982 0 0)
(18.5927 0 0)
(19.6967 0 0)
(20.8091 0 0)
(21.9292 0 0)
(23.0562 0 0)
(24.1895 0 0)
(25.3286 0 0)
(26.473 0 0)
(27.6223 0 0)
(28.776 0 0)
(29.9339 0 0)
(31.0956 0 0)
(32.2608 0 0)
(33.4294 0 0)
(34.6011 0 0)
(35.7757 0 0)
(36.953 0 0)
(38.1328 0 0)
(39.3151 0 0)
(40.4995 0 0)
(41.6862 0 0)
(42.8748 0 0)
(44.0653 0 0)
(45.2576 0 0)
(46.4517 0 0)
(47.6473 0 0)
(48.8445 0 0)
(50.0431 0 0)
(51.243 0 0)
(52.4443 0 0)
(53.6469 0 0)
(54.8506 0 0)
(56.0554 0 0)
(57.2613 0 0)
(58.4682 0 0)
(59.6761 0 0)
(60.8848 0 0)
(62.0945 0 0)
(63.3049 0 0)
(64.5162 0 0)
(65.7282 0 0)
(66.9408 0 0)
(68.1541 0 0)
(69.3681 0 0)
(70.5826 0 0)
(71.7977 0 0)
(73.0133 0 0)
(74.2294 0 0)
(75.4459 0 0)
(76.6628 0 0)
(77.8801 0 0)
(79.0978 0 0)
(80.3157 0 0)
(81.534 0 0)
(82.7525 0 0)
(83.9713 0 0)
(85.1902 0 0)
(86.4094 0 0)
(87.6287 0 0)
(88.848 0 0)
(90.0675 0 0)
(91.2871 0 0)
(92.5066 0 0)
(93.7262 0 0)
(94.9458 0 0)
(96.1653 0 0)
(97.3847 0 0)
(98.604 0 0)
(99.8232 0 0)
(101.042 0 0)
(102.261 0 0)
(103.48 0 0)
(104.698 0 0)
(105.916 0 0)
(107.134 0 0)
(108.351 0 0)
(109.568 0 0)
(110.785 0 0)
(112.001 0 0)
(113.216 0 0)
(114.431 0 0)
(115.646 0 0)
(116.86 0 0)
(118.073 0 0)
(119.286 0 0)
(120.498 0 0)
(121.709 0 0)
(122.92 0 0)
(124.129 0 0)
(125.338 0 0)
(126.546 0 0)
(127.752 0 0)
(128.958 0 0)
(130.163 0 0)
(131.366 0 0)
(132.568 0 0)
(133.769 0 0)
(134.969 0 0)
(136.167 0 0)
(137.364 0 0)
(138.559 0 0)
(139.752 0 0)
(140.944 0 0)
(142.134 0 0)
(143.322 0 0)
(144.508 0 0)
(145.692 0 0)
(146.873 0 0)
(148.053 0 0)
(149.229 0 0)
(150.403 0 0)
(151.575 0 0)
(152.743 0 0)
(153.909 0 0)
(155.071 0 0)
(156.229 0 0)
(157.385 0 0)
(158.536 0 0)
(159.683 0 0)
(160.826 0 0)
(161.965 0 0)
(163.098 0 0)
(164.227 0 0)
(165.35 0 0)
(166.468 0 0)
(167.579 0 0)
(168.684 0 0)
(169.783 0 0)
(170.873 0 0)
(171.957 0 0)
(173.031 0 0)
(174.098 0 0)
(175.154 0 0)
(176.201 0 0)
(177.237 0 0)
(178.261 0 0)
(179.274 0 0)
(180.273 0 0)
(181.259 0 0)
(182.229 0 0)
(183.184 0 0)
(184.122 0 0)
(185.041 0 0)
(185.942 0 0)
(186.821 0 0)
(187.679 0 0)
(188.513 0 0)
(189.322 0 0)
(190.105 0 0)
(190.859 0 0)
(191.584 0 0)
(192.278 0 0)
(192.939 0 0)
(193.567 0 0)
(194.158 0 0)
(194.712 0 0)
(195.229 0 0)
(195.707 0 0)
(196.144 0 0)
(196.543 0 0)
(196.902 0 0)
(197.221 0 0)
(197.502 0 0)
(197.746 0 0)
(197.954 0 0)
(198.129 0 0)
(198.274 0 0)
(198.39 0 0)
(198.482 0 0)
(198.553 0 0)
(198.604 0 0)
(198.64 0 0)
(198.663 0 0)
(198.676 0 0)
(198.682 0 0)
(198.683 0 0)
(198.684 0 0)
(198.683 0 0)
(198.682 0 0)
(198.679 0 0)
(198.672 0 0)
(198.662 0 0)
(198.65 0 0)
(198.638 0 0)
(198.627 0 0)
(198.618 0 0)
(198.611 0 0)
(198.605 0 0)
(198.601 0 0)
(198.598 0 0)
(198.595 0 0)
(198.594 0 0)
(198.592 0 0)
(198.591 0 0)
(198.591 0 0)
(198.59 0 0)
(198.589 0 0)
(198.589 0 0)
(198.588 0 0)
(198.587 0 0)
(198.587 0 0)
(198.586 0 0)
(198.585 0 0)
(198.585 0 0)
(198.584 0 0)
(198.584 0 0)
(198.583 0 0)
(198.583 0 0)
(198.582 0 0)
(198.581 0 0)
(198.581 0 0)
(198.58 0 0)
(198.58 0 0)
(198.579 0 0)
(198.579 0 0)
(198.578 0 0)
(198.577 0 0)
(198.577 0 0)
(198.576 0 0)
(198.576 0 0)
(198.575 0 0)
(198.575 0 0)
(198.574 0 0)
(198.574 0 0)
(198.573 0 0)
(198.573 0 0)
(198.572 0 0)
(198.572 0 0)
(198.571 0 0)
(198.571 0 0)
(198.57 0 0)
(198.57 0 0)
(198.569 0 0)
(198.569 0 0)
(198.568 0 0)
(198.568 0 0)
(198.567 0 0)
(198.567 0 0)
(198.566 0 0)
(198.566 0 0)
(198.565 0 0)
(198.565 0 0)
(198.565 0 0)
(198.564 0 0)
(198.564 0 0)
(198.563 0 0)
(198.563 0 0)
(198.562 0 0)
(198.562 0 0)
(198.561 0 0)
(198.561 0 0)
(198.56 0 0)
(198.56 0 0)
(198.56 0 0)
(198.559 0 0)
(198.559 0 0)
(198.559 0 0)
(198.558 0 0)
(198.558 0 0)
(198.558 0 0)
(198.557 0 0)
(198.557 0 0)
(198.557 0 0)
(198.557 0 0)
(198.556 0 0)
(198.556 0 0)
(198.556 0 0)
(198.556 0 0)
(198.556 0 0)
(198.555 0 0)
(198.555 0 0)
(198.555 0 0)
(198.555 0 0)
(198.555 0 0)
(198.555 0 0)
(198.554 0 0)
(198.554 0 0)
(198.554 0 0)
(198.554 0 0)
(198.554 0 0)
(198.554 0 0)
(198.553 0 0)
(198.553 0 0)
(198.553 0 0)
(198.553 0 0)
(198.553 0 0)
(198.552 0 0)
(198.552 0 0)
(198.552 0 0)
(198.552 0 0)
(198.552 0 0)
(198.551 0 0)
(198.551 0 0)
(198.551 0 0)
(198.551 0 0)
(198.551 0 0)
(198.55 0 0)
(198.55 0 0)
(198.55 0 0)
(198.55 0 0)
(198.55 0 0)
(198.55 0 0)
(198.549 0 0)
(198.549 0 0)
(198.549 0 0)
(198.549 0 0)
(198.548 0 0)
(198.548 0 0)
(198.548 0 0)
(198.548 0 0)
(198.548 0 0)
(198.548 0 0)
(198.547 0 0)
(198.547 0 0)
(198.547 0 0)
(198.547 0 0)
(198.547 0 0)
(198.547 0 0)
(198.546 0 0)
(198.546 0 0)
(198.546 0 0)
(198.546 0 0)
(198.546 0 0)
(198.546 0 0)
(198.545 0 0)
(198.545 0 0)
(198.545 0 0)
(198.545 0 0)
(198.545 0 0)
(198.545 0 0)
(198.545 0 0)
(198.544 0 0)
(198.544 0 0)
(198.544 0 0)
(198.544 0 0)
(198.544 0 0)
(198.544 0 0)
(198.544 0 0)
(198.543 0 0)
(198.543 0 0)
(198.543 0 0)
(198.543 0 0)
(198.543 0 0)
(198.543 0 0)
(198.542 0 0)
(198.542 0 0)
(198.542 0 0)
(198.542 0 0)
(198.542 0 0)
(198.541 0 0)
(198.541 0 0)
(198.541 0 0)
(198.541 0 0)
(198.54 0 0)
(198.54 0 0)
(198.54 0 0)
(198.54 0 0)
(198.54 0 0)
(198.54 0 0)
(198.54 0 0)
(198.539 0 0)
(198.539 0 0)
(198.539 0 0)
(198.539 0 0)
(198.539 0 0)
(198.539 0 0)
(198.539 0 0)
(198.539 0 0)
(198.539 0 0)
(198.538 0 0)
(198.539 0 0)
(198.539 0 0)
(198.539 0 0)
(198.538 0 0)
(198.538 0 0)
(198.541 0 0)
(198.547 0 0)
(198.556 0 0)
(198.579 0 0)
(198.647 0 0)
(198.786 0 0)
(198.823 0 0)
(198.697 0 0)
(198.572 0 0)
(198.501 0 0)
(198.488 0 0)
(198.499 0 0)
(198.497 0 0)
(198.492 0 0)
(198.51 0 0)
(198.537 0 0)
(198.538 0 0)
(198.519 0 0)
(198.519 0 0)
(198.542 0 0)
(198.552 0 0)
(198.529 0 0)
(198.511 0 0)
(198.531 0 0)
(198.557 0 0)
(198.545 0 0)
(198.516 0 0)
(198.52 0 0)
(198.55 0 0)
(198.556 0 0)
(198.528 0 0)
(198.511 0 0)
(198.532 0 0)
(198.554 0 0)
(198.535 0 0)
(198.506 0 0)
(198.516 0 0)
(198.547 0 0)
(198.546 0 0)
(198.514 0 0)
(198.506 0 0)
(198.536 0 0)
(198.553 0 0)
(198.527 0 0)
(198.503 0 0)
(198.521 0 0)
(198.551 0 0)
(198.543 0 0)
(198.511 0 0)
(198.507 0 0)
(198.537 0 0)
(198.551 0 0)
(198.524 0 0)
(198.503 0 0)
(198.524 0 0)
(198.551 0 0)
(198.537 0 0)
(198.506 0 0)
(198.511 0 0)
(198.544 0 0)
(198.548 0 0)
(198.516 0 0)
(198.501 0 0)
(198.529 0 0)
(198.553 0 0)
(198.532 0 0)
(198.501 0 0)
(198.512 0 0)
(198.545 0 0)
(198.545 0 0)
(198.512 0 0)
(198.502 0 0)
(198.532 0 0)
(198.55 0 0)
(198.525 0 0)
(198.499 0 0)
(198.517 0 0)
(198.549 0 0)
(198.539 0 0)
(198.504 0 0)
(198.503 0 0)
(198.538 0 0)
(198.55 0 0)
(198.519 0 0)
(198.496 0 0)
(198.52 0 0)
(198.549 0 0)
(198.534 0 0)
(198.501 0 0)
(198.505 0 0)
(198.539 0 0)
(198.545 0 0)
(198.512 0 0)
(198.495 0 0)
(198.524 0 0)
(198.549 0 0)
(198.527 0 0)
(198.494 0 0)
(198.508 0 0)
(198.543 0 0)
(198.54 0 0)
(198.503 0 0)
(198.495 0 0)
(198.529 0 0)
(198.548 0 0)
(198.519 0 0)
(198.49 0 0)
(198.509 0 0)
(198.544 0 0)
(198.535 0 0)
(198.498 0 0)
(198.495 0 0)
(198.53 0 0)
(198.544 0 0)
(198.512 0 0)
(198.488 0 0)
(198.513 0 0)
(198.544 0 0)
(198.526 0 0)
(198.489 0 0)
(198.497 0 0)
(198.535 0 0)
(198.538 0 0)
(198.501 0 0)
(198.484 0 0)
(198.516 0 0)
(198.543 0 0)
(198.518 0 0)
(198.482 0 0)
(198.496 0 0)
(198.534 0 0)
(198.531 0 0)
(198.492 0 0)
(198.481 0 0)
(198.515 0 0)
(198.536 0 0)
(198.506 0 0)
(198.475 0 0)
(198.496 0 0)
(198.532 0 0)
(198.519 0 0)
(198.478 0 0)
(198.477 0 0)
(198.516 0 0)
(198.528 0 0)
(198.488 0 0)
(198.463 0 0)
(198.493 0 0)
(198.526 0 0)
(198.501 0 0)
(198.458 0 0)
(198.467 0 0)
(198.509 0 0)
(198.511 0 0)
(198.467 0 0)
(198.445 0 0)
(198.477 0 0)
(198.506 0 0)
(198.478 0 0)
(198.436 0 0)
(198.445 0 0)
(198.483 0 0)
(198.48 0 0)
(198.434 0 0)
(198.416 0 0)
(198.448 0 0)
(198.469 0 0)
(198.433 0 0)
(198.392 0 0)
(198.406 0 0)
(198.44 0 0)
(198.425 0 0)
(198.374 0 0)
(198.362 0 0)
(198.394 0 0)
(198.403 0 0)
(198.355 0 0)
(198.315 0 0)
(198.333 0 0)
(198.359 0 0)
(198.326 0 0)
(198.269 0 0)
(198.261 0 0)
(198.289 0 0)
(198.28 0 0)
(198.22 0 0)
(198.179 0 0)
(198.192 0 0)
(198.204 0 0)
(198.155 0 0)
(198.091 0 0)
(198.076 0 0)
(198.088 0 0)
(198.06 0 0)
(197.988 0 0)
(197.939 0 0)
(197.935 0 0)
(197.922 0 0)
(197.853 0 0)
(197.777 0 0)
(197.743 0 0)
(197.726 0 0)
(197.667 0 0)
(197.572 0 0)
(197.501 0 0)
(197.461 0 0)
(197.409 0 0)
(197.301 0 0)
(197.186 0 0)
(197.111 0 0)
(197.054 0 0)
(196.938 0 0)
(196.772 0 0)
(196.641 0 0)
(196.553 0 0)
(196.431 0 0)
(196.21 0 0)
(195.988 0 0)
(195.836 0 0)
(195.699 0 0)
(195.435 0 0)
(195.089 0 0)
(194.82 0 0)
(194.614 0 0)
(194.303 0 0)
(193.796 0 0)
(193.282 0 0)
(192.914 0 0)
(192.562 0 0)
(191.745 0 0)
(190.339 0 0)
(188.281 0 0)
(184.382 0 0)
(174.311 0 0)
(136.685 0 0)
(65.689 0 0)
(18.7305 0 0)
(4.77195 0 0)
(1.15233 0 0)
(0.273948 0 0)
(0.0648702 0 0)
(0.0153492 0 0)
(0.00363142 0 0)
(0.000859163 0 0)
(0.000203265 0 0)
(4.80881e-05 0 0)
(1.13763e-05 0 0)
(2.6913e-06 0 0)
(6.36685e-07 0 0)
(1.50633e-07 0 0)
(3.56509e-08 0 0)
(8.45094e-09 0 0)
(2.01788e-09 0 0)
(4.96706e-10 0 0)
(1.36714e-10 0 0)
(5.17307e-11 0 0)
(3.28438e-11 0 0)
(2.60195e-11 0 0)
(2.48108e-11 0 0)
(2.34061e-11 0 0)
(2.2181e-11 0 0)
(2.28009e-11 0 0)
(2.26843e-11 0 0)
(2.23148e-11 0 0)
(2.0797e-11 0 0)
(2.07122e-11 0 0)
(1.9516e-11 0 0)
(2.1393e-11 0 0)
(2.31363e-11 0 0)
(2.37156e-11 0 0)
(2.30344e-11 0 0)
(2.14543e-11 0 0)
(2.05718e-11 0 0)
(2.10629e-11 0 0)
(2.08513e-11 0 0)
(1.86919e-11 0 0)
(2.14149e-11 0 0)
(2.06672e-11 0 0)
(2.08293e-11 0 0)
(2.03233e-11 0 0)
(2.10797e-11 0 0)
(2.16032e-11 0 0)
(2.45089e-11 0 0)
(2.41952e-11 0 0)
(2.52516e-11 0 0)
(2.35271e-11 0 0)
(2.64289e-11 0 0)
(2.63116e-11 0 0)
(2.76526e-11 0 0)
(2.59557e-11 0 0)
(2.53595e-11 0 0)
(2.26685e-11 0 0)
(2.29244e-11 0 0)
(2.39624e-11 0 0)
(2.26833e-11 0 0)
(2.45096e-11 0 0)
(2.25521e-11 0 0)
(2.247e-11 0 0)
(2.40662e-11 0 0)
(2.54735e-11 0 0)
(2.70722e-11 0 0)
(2.86592e-11 0 0)
(2.74738e-11 0 0)
(3.1761e-11 0 0)
(3.18215e-11 0 0)
(3.19932e-11 0 0)
(2.95902e-11 0 0)
(3.29804e-11 0 0)
(3.03382e-11 0 0)
(3.19308e-11 0 0)
(2.98988e-11 0 0)
(2.91305e-11 0 0)
(2.69787e-11 0 0)
(2.82433e-11 0 0)
(2.68635e-11 0 0)
(2.71524e-11 0 0)
(2.71536e-11 0 0)
(2.81362e-11 0 0)
(2.9796e-11 0 0)
(2.95608e-11 0 0)
(2.99828e-11 0 0)
(2.83493e-11 0 0)
(2.85091e-11 0 0)
(2.886e-11 0 0)
(2.73479e-11 0 0)
(3.0047e-11 0 0)
(2.86992e-11 0 0)
(2.8027e-11 0 0)
(2.56888e-11 0 0)
(2.88022e-11 0 0)
(2.63048e-11 0 0)
(2.5201e-11 0 0)
(2.47187e-11 0 0)
(2.39561e-11 0 0)
(2.42632e-11 0 0)
(2.25096e-11 0 0)
(2.1672e-11 0 0)
(2.1996e-11 0 0)
(2.47611e-11 0 0)
(2.40799e-11 0 0)
(2.24205e-11 0 0)
(2.02058e-11 0 0)
(2.01108e-11 0 0)
(1.67957e-11 0 0)
(1.65064e-11 0 0)
(1.73145e-11 0 0)
(1.79589e-11 0 0)
(1.88109e-11 0 0)
(2.09937e-11 0 0)
(1.93504e-11 0 0)
(2.17615e-11 0 0)
(2.01438e-11 0 0)
(1.907e-11 0 0)
(1.85944e-11 0 0)
(2.16575e-11 0 0)
(2.07663e-11 0 0)
(2.03608e-11 0 0)
(1.95916e-11 0 0)
(2.15216e-11 0 0)
(2.21852e-11 0 0)
(2.08201e-11 0 0)
(1.92325e-11 0 0)
(1.90755e-11 0 0)
(2.22623e-11 0 0)
(2.06672e-11 0 0)
(1.91147e-11 0 0)
(1.86877e-11 0 0)
(2.20843e-11 0 0)
(2.17704e-11 0 0)
(2.30298e-11 0 0)
(2.32791e-11 0 0)
(2.47843e-11 0 0)
(2.16884e-11 0 0)
(2.35012e-11 0 0)
(2.08106e-11 0 0)
(2.54184e-11 0 0)
(2.27055e-11 0 0)
(2.58164e-11 0 0)
(2.59009e-11 0 0)
)
;

boundaryField
{
    sides
    {
        type            zeroGradient;
    }
    empty
    {
        type            empty;
    }
}


// ************************************************************************* //
