/*--------------------------------*- C++ -*----------------------------------*\
| =========                 |                                                 |
| \\      /  F ield         | OpenFOAM: The Open Source CFD Toolbox           |
|  \\    /   O peration     | Version:  4.1                                   |
|   \\  /    A nd           | Web:      www.OpenFOAM.org                      |
|    \\/     M anipulation  |                                                 |
\*---------------------------------------------------------------------------*/
FoamFile
{
    version     2.0;
    format      ascii;
    class       volScalarField;
    location    "0.0038";
    object      mag(U);
}
// * * * * * * * * * * * * * * * * * * * * * * * * * * * * * * * * * * * * * //

dimensions      [0 1 -1 0 0 0 0];

internalField   nonuniform List<scalar> 
1000
(
1.62493e-11
1.6801e-11
1.71704e-11
1.70335e-11
1.59739e-11
1.63471e-11
1.64953e-11
1.71115e-11
1.64311e-11
1.85192e-11
1.75623e-11
2.08648e-11
2.17713e-11
2.29598e-11
1.86238e-11
1.91346e-11
1.78081e-11
1.92853e-11
1.61302e-11
1.81659e-11
1.32899e-11
1.43814e-11
1.21171e-11
1.31784e-11
8.00728e-12
1.08759e-11
9.10309e-12
1.05497e-11
9.85242e-12
1.03271e-11
1.17486e-11
9.82332e-12
9.53705e-12
5.28284e-12
6.52223e-12
4.47823e-12
7.30861e-12
4.37427e-12
1.0244e-11
5.62346e-12
1.05935e-11
8.09879e-12
1.24438e-11
6.87504e-12
8.34603e-12
6.46018e-12
7.61076e-12
8.79563e-12
9.24046e-12
6.88162e-12
9.71657e-12
5.79322e-12
8.46841e-12
8.27689e-12
7.28577e-12
8.16643e-12
6.26669e-12
9.6946e-12
5.0024e-12
8.4525e-12
5.03668e-12
7.4726e-12
6.76175e-12
8.10711e-12
6.41633e-12
8.92775e-12
8.14167e-12
9.02507e-12
4.58386e-12
6.75449e-12
4.59842e-13
1.75548e-12
2.38266e-12
4.94615e-13
1.27813e-12
4.13806e-12
3.72054e-13
1.57636e-12
1.79853e-12
2.7476e-12
3.88025e-12
4.91577e-12
3.03214e-12
4.44381e-12
4.84746e-12
8.66901e-13
2.77975e-12
1.0214e-12
3.39007e-12
6.74825e-13
2.02908e-12
7.99764e-13
2.57911e-12
3.8193e-12
8.07767e-13
5.65937e-12
5.30487e-12
9.50888e-12
1.01669e-11
1.28085e-11
1.18217e-11
1.07172e-11
1.08023e-11
7.41257e-12
1.06169e-11
9.47318e-12
1.05988e-11
1.13132e-11
8.64198e-12
8.28707e-12
7.56696e-12
5.49732e-12
6.17378e-12
7.32541e-12
9.44141e-12
1.1629e-11
9.97828e-12
9.3928e-12
1.07199e-11
1.14921e-11
1.15753e-11
1.32875e-11
1.15076e-11
1.36916e-11
1.11001e-11
1.00861e-11
7.83823e-12
1.06048e-11
9.14727e-12
9.927e-12
1.00098e-11
1.06465e-11
1.01466e-11
7.07731e-12
6.8754e-12
6.20362e-12
4.31723e-12
3.04337e-12
3.72044e-12
4.33504e-12
2.68028e-12
5.06642e-12
5.54838e-12
4.68237e-12
5.0989e-12
6.89561e-12
7.35287e-12
5.4492e-12
7.42824e-12
6.76872e-12
8.82345e-12
6.61897e-12
9.01536e-12
4.42995e-12
7.60849e-12
7.36582e-12
8.4527e-12
1.01787e-11
8.10155e-12
7.01506e-12
7.8326e-12
7.27173e-12
7.45238e-12
8.2972e-12
5.0754e-12
4.77328e-12
6.13479e-12
5.6355e-12
6.96782e-12
6.96818e-12
8.91866e-12
1.13269e-11
1.03116e-11
1.24553e-11
1.31271e-11
1.34117e-11
9.6628e-12
1.22348e-11
9.90501e-12
1.23707e-11
7.87232e-12
8.71196e-12
7.77922e-12
8.53165e-12
7.26701e-12
9.6497e-12
8.86138e-12
8.74422e-12
8.70182e-12
9.02918e-12
8.85897e-12
4.63085e-12
6.52288e-12
4.03599e-12
5.45229e-12
2.86064e-12
5.40425e-12
2.6807e-12
5.28164e-12
1.31229e-12
4.84141e-12
5.73982e-13
5.57389e-12
4.11695e-12
5.32844e-12
3.96499e-12
3.99794e-12
9.31158e-13
8.15136e-13
4.23691e-12
6.2807e-12
7.26536e-12
7.1055e-12
1.05325e-11
9.9315e-12
1.07138e-11
7.27492e-12
1.27015e-11
9.15182e-12
1.51522e-11
1.18753e-11
1.45965e-11
9.76794e-12
1.3147e-11
8.09431e-12
1.29137e-11
7.27673e-12
1.28815e-11
9.16617e-12
8.47607e-12
6.62911e-12
6.34927e-12
7.76774e-12
5.6484e-12
7.99259e-12
4.30882e-12
7.32897e-12
4.14738e-12
5.70343e-12
4.18829e-12
8.14757e-12
3.60812e-12
7.33709e-12
4.90132e-13
4.70273e-12
1.26047e-12
3.70859e-12
1.89201e-12
3.11632e-12
3.74632e-12
5.61186e-12
5.26357e-12
6.93975e-12
3.88635e-12
6.79862e-12
4.36073e-12
5.23289e-12
2.63026e-12
4.88176e-12
5.79292e-12
5.88154e-12
4.35195e-12
5.0076e-12
3.8804e-12
1.68882e-12
3.94291e-13
1.38844e-12
3.55304e-12
5.15833e-13
2.1497e-12
5.19896e-12
6.04166e-12
4.90846e-12
5.64193e-12
5.6181e-12
9.53494e-12
7.63017e-12
1.27188e-11
9.041e-12
1.07259e-11
7.92641e-12
9.83796e-12
6.88535e-12
7.77762e-12
6.50152e-12
8.49076e-12
7.25574e-12
8.17777e-12
5.50029e-12
4.41041e-12
4.44817e-12
6.54976e-12
4.97979e-12
4.58912e-12
8.07346e-12
9.01436e-12
9.04408e-12
1.0562e-11
1.47497e-11
2.39968e-11
4.98467e-11
1.04679e-10
2.366e-10
5.29549e-10
1.17777e-09
2.583e-09
5.61058e-09
1.20685e-08
2.57153e-08
5.42767e-08
1.13487e-07
2.35054e-07
4.82185e-07
9.79547e-07
1.97028e-06
3.92325e-06
7.7322e-06
1.50804e-05
2.90996e-05
5.55433e-05
0.000104845
0.000195673
0.000360968
0.000658023
0.00118501
0.00210752
0.0037004
0.00641197
0.0109605
0.0184749
0.0306934
0.0502343
0.0809493
0.128359
0.200151
0.306696
0.461479
0.681305
0.986054
1.39771
1.93824
2.62564
3.46701
4.45428
5.57141
6.80415
8.14114
9.57163
11.0848
12.6701
14.3178
16.0189
17.7657
19.5517
21.3711
23.2194
25.0925
26.9872
28.9007
30.8307
32.7754
34.733
36.7022
38.6818
40.6707
42.6679
44.6728
46.6845
48.7026
50.7263
52.7553
54.789
56.827
58.869
60.9147
62.9636
65.0155
67.0701
69.1272
71.1865
73.2477
75.3107
77.3751
79.4409
81.5077
83.5754
85.6438
87.7127
89.7819
91.8512
93.9203
95.9892
98.0576
100.125
102.192
104.258
106.322
108.385
110.446
112.505
114.561
116.615
118.667
120.715
122.76
124.801
126.838
128.87
130.898
132.921
134.937
136.948
138.952
140.949
142.939
144.919
146.891
148.853
150.805
152.745
154.673
156.588
158.488
160.373
162.241
164.09
165.92
167.729
169.514
171.274
173.008
174.71
176.382
178.018
179.617
181.174
182.687
184.153
185.565
186.925
188.222
189.456
190.622
191.715
192.733
193.67
194.524
195.295
195.978
196.575
197.089
197.518
197.872
198.153
198.367
198.526
198.637
198.706
198.747
198.764
198.768
198.768
198.767
198.764
198.755
198.738
198.713
198.685
198.659
198.637
198.621
198.608
198.6
198.596
198.593
198.591
198.59
198.588
198.587
198.585
198.584
198.583
198.583
198.582
198.581
198.581
198.58
198.579
198.578
198.577
198.577
198.576
198.575
198.575
198.574
198.573
198.573
198.572
198.571
198.57
198.57
198.569
198.568
198.568
198.567
198.567
198.566
198.565
198.565
198.564
198.563
198.563
198.562
198.562
198.561
198.56
198.56
198.559
198.559
198.558
198.558
198.557
198.557
198.556
198.556
198.555
198.555
198.554
198.554
198.553
198.552
198.552
198.551
198.55
198.55
198.549
198.548
198.548
198.547
198.546
198.545
198.544
198.544
198.543
198.543
198.542
198.542
198.541
198.54
198.54
198.541
198.541
198.541
198.541
198.54
198.539
198.538
198.539
198.541
198.541
198.538
198.536
198.535
198.535
198.535
198.536
198.541
198.552
198.567
198.597
198.667
198.833
198.905
198.771
198.618
198.508
198.46
198.474
198.502
198.502
198.491
198.509
198.541
198.539
198.51
198.504
198.535
198.554
198.531
198.502
198.516
198.546
198.54
198.504
198.496
198.527
198.542
198.512
198.488
198.513
198.545
198.53
198.492
198.494
198.531
198.545
198.513
198.486
198.506
198.538
198.528
198.493
198.491
198.525
198.535
198.501
198.48
198.509
198.539
198.516
198.477
198.487
198.528
198.53
198.488
198.47
198.503
198.531
198.504
198.464
198.475
198.515
198.514
198.471
198.454
198.488
198.511
198.479
198.44
198.454
198.492
198.483
198.436
198.421
198.455
198.473
198.434
198.392
198.406
198.439
198.422
198.369
198.353
198.382
198.391
198.343
198.295
198.305
198.33
198.3
198.237
198.214
198.234
198.227
198.164
198.107
198.105
198.112
198.061
197.983
197.944
197.94
197.907
197.82
197.743
197.706
197.677
197.594
197.481
197.402
197.351
197.271
197.125
196.984
196.891
196.801
196.625
196.4
196.23
196.106
195.912
195.589
195.28
195.06
194.836
194.4
193.826
193.388
193.099
192.529
191.264
189.411
186.29
178.781
151.946
87.1516
27.3275
7.0992
1.72759
0.411306
0.0973059
0.0229848
0.00542748
0.00128158
0.000302606
7.1448e-05
1.68686e-05
3.98244e-06
9.4015e-07
2.21932e-07
5.2383e-08
1.23591e-08
2.91142e-09
6.82499e-10
1.529e-10
3.12082e-11
1.32787e-12
5.41551e-12
9.23626e-12
5.4093e-12
7.18771e-12
2.24017e-12
3.86512e-12
4.05959e-13
4.54553e-12
3.64411e-12
5.6809e-12
5.08938e-12
4.95344e-12
2.30094e-12
6.82643e-12
4.676e-13
2.11044e-12
4.85022e-12
4.87202e-12
1.30408e-12
3.18912e-12
3.22363e-12
2.38948e-12
8.32368e-13
1.91111e-12
2.75584e-12
2.63664e-13
5.78791e-12
1.05275e-12
3.24946e-12
8.97578e-13
1.70741e-12
9.06871e-13
7.3188e-13
1.54428e-12
5.56958e-12
3.23646e-12
2.16802e-12
1.25024e-12
5.26917e-12
4.43629e-12
3.86935e-12
6.18252e-12
4.34283e-12
8.14804e-12
7.42893e-12
6.3998e-12
5.04994e-12
5.18404e-12
1.85478e-12
3.80202e-12
4.47512e-12
5.03072e-12
2.5204e-12
3.08759e-12
1.13542e-12
1.30326e-12
3.05628e-12
6.5468e-13
2.68066e-12
6.61476e-13
2.46914e-12
3.49841e-12
3.90204e-12
2.22532e-12
4.01301e-12
2.84514e-12
5.55741e-13
4.11706e-12
5.51717e-13
3.49059e-12
2.51606e-12
2.00061e-13
2.48301e-12
3.97888e-12
2.24054e-12
4.4876e-12
7.56927e-12
4.64747e-12
6.27179e-12
2.73751e-12
9.31929e-12
4.07958e-12
6.54208e-12
2.02709e-12
7.7122e-12
3.40231e-12
4.43313e-12
2.10837e-12
5.78096e-13
3.29381e-12
2.63942e-12
4.73829e-12
1.09362e-12
1.2074e-12
1.58327e-12
7.85076e-13
2.62182e-12
1.60154e-12
2.56176e-12
2.82687e-12
2.37608e-12
2.22889e-12
1.5858e-12
1.48672e-12
5.22608e-13
9.82851e-13
3.99999e-12
3.67842e-12
7.85373e-12
7.36908e-12
1.0285e-11
8.54282e-12
9.45505e-12
9.15873e-12
6.65068e-12
4.91941e-12
4.52096e-12
3.75875e-12
4.44249e-12
4.96789e-12
8.25361e-12
5.04668e-12
5.95571e-12
5.86589e-12
6.59478e-12
6.48787e-12
6.82137e-12
7.74307e-12
9.92253e-12
8.79668e-12
1.06481e-11
1.11214e-11
1.13628e-11
1.03905e-11
9.3729e-12
9.5636e-12
8.01979e-12
6.30749e-12
5.13035e-12
5.04321e-12
3.00108e-12
6.81178e-12
7.07544e-12
6.15621e-12
5.49993e-12
2.7794e-12
1.32144e-12
1.66567e-12
5.19783e-14
1.19751e-12
1.74341e-12
4.29076e-13
9.2397e-13
2.84908e-12
2.74964e-12
1.66324e-12
3.33201e-13
7.78728e-13
6.98483e-13
4.62069e-14
1.42335e-12
1.42515e-12
4.65662e-12
4.97774e-12
4.92191e-12
3.50817e-12
1.12371e-12
3.31723e-12
2.48827e-12
4.99397e-12
3.76684e-12
9.42023e-13
1.46377e-12
3.74566e-12
1.51637e-12
4.0948e-13
1.36491e-12
4.31366e-13
2.49046e-12
2.86374e-12
6.55414e-12
2.8451e-13
2.82911e-12
2.54422e-12
3.13133e-12
3.00996e-13
2.51692e-12
4.13466e-12
5.44318e-12
3.05965e-12
3.3605e-12
3.92506e-12
1.36193e-12
6.82609e-12
7.52601e-12
8.36274e-12
6.14568e-12
8.08992e-12
8.86644e-12
1.13738e-11
1.17844e-11
1.44516e-11
1.45839e-11
1.3744e-11
1.0474e-11
8.93296e-12
8.74449e-12
1.02044e-11
9.72235e-12
9.64758e-12
1.03703e-11
1.3245e-11
1.39402e-11
1.38307e-11
1.36485e-11
1.58536e-11
1.67904e-11
1.76955e-11
1.88748e-11
2.25268e-11
2.0859e-11
2.30135e-11
2.3416e-11
2.8808e-11
2.86311e-11
3.05919e-11
2.93908e-11
2.94264e-11
2.87824e-11
2.89509e-11
2.57029e-11
2.43556e-11
2.40734e-11
2.38569e-11
2.32754e-11
2.36394e-11
2.41901e-11
2.16785e-11
1.93794e-11
1.74544e-11
1.9285e-11
1.46226e-11
1.46865e-11
1.41762e-11
1.67002e-11
1.60326e-11
1.66581e-11
1.59675e-11
1.97478e-11
1.66003e-11
1.70946e-11
1.39083e-11
1.40822e-11
1.44057e-11
1.6147e-11
1.81565e-11
1.97023e-11
2.13543e-11
2.0819e-11
2.16921e-11
2.24164e-11
2.40906e-11
2.18441e-11
2.20301e-11
2.08595e-11
2.18345e-11
1.83983e-11
2.27679e-11
2.03522e-11
2.35472e-11
2.03927e-11
2.213e-11
2.03475e-11
)
;

boundaryField
{
    sides
    {
        type            calculated;
        value           nonuniform List<scalar> 2(2.03475e-11 1.62493e-11);
    }
    empty
    {
        type            empty;
    }
}


// ************************************************************************* //
