/*--------------------------------*- C++ -*----------------------------------*\
| =========                 |                                                 |
| \\      /  F ield         | OpenFOAM: The Open Source CFD Toolbox           |
|  \\    /   O peration     | Version:  4.1                                   |
|   \\  /    A nd           | Web:      www.OpenFOAM.org                      |
|    \\/     M anipulation  |                                                 |
\*---------------------------------------------------------------------------*/
FoamFile
{
    version     2.0;
    format      ascii;
    class       volScalarField;
    location    "0.0038";
    object      p;
}
// * * * * * * * * * * * * * * * * * * * * * * * * * * * * * * * * * * * * * //

dimensions      [1 -1 -2 0 0 0 0];

internalField   nonuniform List<scalar> 
1000
(
100000
100000
100000
100000
100000
100000
100000
100000
100000
100000
100000
100000
100000
100000
100000
100000
100000
100000
100000
100000
100000
100000
100000
100000
100000
100000
100000
100000
100000
100000
100000
100000
100000
100000
100000
100000
100000
100000
100000
100000
100000
100000
100000
100000
100000
100000
100000
100000
100000
100000
100000
100000
100000
100000
100000
100000
100000
100000
100000
100000
100000
100000
100000
100000
100000
100000
100000
100000
100000
100000
100000
100000
100000
100000
100000
100000
100000
100000
100000
100000
100000
100000
100000
100000
100000
100000
100000
100000
100000
100000
100000
100000
100000
100000
100000
100000
100000
100000
100000
100000
100000
100000
100000
100000
100000
100000
100000
100000
100000
100000
100000
100000
100000
100000
100000
100000
100000
100000
100000
100000
100000
100000
100000
100000
100000
100000
100000
100000
100000
100000
100000
100000
100000
100000
100000
100000
100000
100000
100000
100000
100000
100000
100000
100000
100000
100000
100000
100000
100000
100000
100000
100000
100000
100000
100000
100000
100000
100000
100000
100000
100000
100000
100000
100000
100000
100000
100000
100000
100000
100000
100000
100000
100000
100000
100000
100000
100000
100000
100000
100000
100000
100000
100000
100000
100000
100000
100000
100000
100000
100000
100000
100000
100000
100000
100000
100000
100000
100000
100000
100000
100000
100000
100000
100000
100000
100000
100000
100000
100000
100000
100000
100000
100000
100000
100000
100000
100000
100000
100000
100000
100000
100000
100000
100000
100000
100000
100000
100000
100000
100000
100000
100000
100000
100000
100000
100000
100000
100000
100000
100000
100000
100000
100000
100000
100000
100000
100000
100000
100000
100000
100000
100000
100000
100000
100000
100000
100000
100000
100000
100000
100000
100000
100000
100000
100000
100000
100000
100000
100000
100000
100000
100000
100000
100000
100000
100000
100000
100000
100000
100000
100000
100000
100000
100000
100000
100000
100000
100000
100000
100000
100000
100000
100000
100000
100000
100000
100000
100000
100000
100000
100000
100000
100000
100000
100000
100000
100000
100000
100000
100000
100000
100000
100000
100000
100000
100000
100000
100000
100000
100000
100000
99999.9
99999.9
99999.8
99999.6
99999.3
99998.7
99997.8
99996.2
99993.6
99989.4
99982.7
99972.1
99955.7
99930.8
99893.9
99840.3
99764
99658.2
99515.3
99327.5
99088.4
98795.4
98452.3
98065.8
97641.5
97183.2
96695.3
96181.6
95646.1
95092.5
94524.1
93943.5
93353.3
92755.4
92151.5
91543.1
90931.3
90317.1
89701.3
89084.5
88467.4
87850.4
87234
86618.5
86004.2
85391.4
84780.3
84171.2
83564.1
82959.2
82356.8
81756.9
81159.6
80565.1
79973.4
79384.5
78798.7
78215.9
77636.2
77059.7
76486.3
75916.3
75349.5
74786.1
74226.1
73669.5
73116.4
72566.8
72020.7
71478.2
70939.2
70403.9
69872.2
69344.2
68819.9
68299.3
67782.5
67269.5
66760.4
66255
65753.6
65256.2
64762.7
64273.2
63787.8
63306.4
62829.2
62356.2
61887.5
61423.1
60963.1
60507.5
60056.4
59610
59168.2
58731.2
58299.2
57872.1
57450.2
57033.5
56622.3
56216.7
55816.8
55422.9
55035.2
54653.9
54279.2
53911.5
53551
53198.2
52853.1
52516.7
52188.6
51870.3
51561.1
51262.8
50974.7
50698.3
50434
50182.1
49943.8
49719.2
49509.3
49314.7
49135.6
48972.7
48826.2
48696.2
48582.7
48485.2
48403.1
48336.1
48282.5
48241.1
48210.5
48189.1
48175.6
48167.3
48163.8
48163
48163.1
48163.3
48163.9
48165.4
48168.4
48172.7
48177.6
48182.2
48186.2
48189.2
48191.3
48192.9
48194
48194.7
48195.2
48195.4
48195.6
48195.6
48195.7
48195.8
48196
48196.2
48196.4
48196.6
48196.7
48196.8
48196.9
48196.9
48197
48197.1
48197.2
48197.3
48197.4
48197.5
48197.6
48197.7
48197.7
48197.8
48197.9
48198
48198.1
48198.2
48198.3
48198.4
48198.4
48198.5
48198.6
48198.7
48198.7
48198.8
48198.9
48199
48199.1
48199.1
48199.2
48199.2
48199.2
48199.3
48199.4
48199.5
48199.5
48199.6
48199.7
48199.8
48199.9
48199.9
48200
48200.1
48200.1
48200.2
48200.2
48200.3
48200.3
48200.3
48200.3
48200.4
48200.4
48200.4
48200.5
48200.5
48200.5
48200.5
48200.5
48200.6
48200.7
48200.9
48200.9
48200.9
48200.7
48201
48201.3
48201.3
48201.5
48201.4
48201.3
48201.2
48201.5
48202.5
48202.4
48200.7
48200.2
48200.6
48201.2
48201.1
48200.7
48200.1
48200.6
48202.3
48202.7
48204
48207.8
48198.2
48201.1
48202.3
48194.8
48192.4
48204.7
48209.7
48201.7
48192.3
48198.5
48211
48207.2
48191.3
48191.4
48208.2
48212.7
48199.2
48189.7
48198.1
48211.9
48208.1
48191
48191
48208.3
48212.1
48195.5
48187.9
48202.1
48213.5
48204.6
48188.7
48191.8
48210.5
48213.2
48196
48188.2
48199.8
48211.9
48205.9
48189.9
48191.8
48209.4
48211.2
48192.9
48187.2
48204.2
48213.9
48200.6
48186.2
48193.8
48212.1
48210.5
48189.8
48186.1
48204.6
48213.4
48198.9
48185.1
48193
48210.8
48208.4
48187.7
48184.9
48204.1
48211.6
48194.9
48182.3
48192.5
48209.5
48204.3
48183.1
48181.8
48202
48208.1
48188.6
48177.3
48188.7
48204.8
48197.3
48175.7
48175.2
48195.4
48200
48178
48167.5
48178.9
48193.8
48183
48161.8
48161.6
48180.1
48182.5
48157
48148
48157.8
48170.4
48154.2
48134.2
48132.7
48146.3
48146.3
48118.8
48110.2
48112.8
48122
48102
48079
48074.3
48078.2
48076.5
48036
48021.8
48019.2
48027.4
47990.8
47948.8
47937.9
47941.4
47930.6
47844.8
47815.6
47808.2
47819.7
47720.3
47633.9
47605.5
47605.8
47552.3
47285.4
47087.2
46674
45817.3
43392.4
32801.3
27261
25581.4
25140.7
25033.4
25007.9
25001.9
25000.4
25000.1
25000
25000
25000
25000
25000
25000
25000
25000
25000
25000
25000
25000
25000
25000
25000
25000
25000
25000
25000
25000
25000
25000
25000
25000
25000
25000
25000
25000
25000
25000
25000
25000
25000
25000
25000
25000
25000
25000
25000
25000
25000
25000
25000
25000
25000
25000
25000
25000
25000
25000
25000
25000
25000
25000
25000
25000
25000
25000
25000
25000
25000
25000
25000
25000
25000
25000
25000
25000
25000
25000
25000
25000
25000
25000
25000
25000
25000
25000
25000
25000
25000
25000
25000
25000
25000
25000
25000
25000
25000
25000
25000
25000
25000
25000
25000
25000
25000
25000
25000
25000
25000
25000
25000
25000
25000
25000
25000
25000
25000
25000
25000
25000
25000
25000
25000
25000
25000
25000
25000
25000
25000
25000
25000
25000
25000
25000
25000
25000
25000
25000
25000
25000
25000
25000
25000
25000
25000
25000
25000
25000
25000
25000
25000
25000
25000
25000
25000
25000
25000
25000
25000
25000
25000
25000
25000
25000
25000
25000
25000
25000
25000
25000
25000
25000
25000
25000
25000
25000
25000
25000
25000
25000
25000
25000
25000
25000
25000
25000
25000
25000
25000
25000
25000
25000
25000
25000
25000
25000
25000
25000
25000
25000
25000
25000
25000
25000
25000
25000
25000
25000
25000
25000
25000
25000
25000
25000
25000
25000
25000
25000
25000
25000
25000
25000
25000
25000
25000
25000
25000
25000
25000
25000
25000
25000
25000
25000
25000
25000
25000
25000
25000
25000
25000
25000
25000
25000
25000
25000
25000
25000
25000
25000
25000
25000
25000
25000
25000
25000
25000
25000
25000
25000
25000
25000
25000
25000
25000
25000
25000
25000
25000
25000
25000
25000
25000
25000
25000
25000
25000
25000
25000
25000
25000
25000
25000
25000
25000
25000
25000
25000
25000
25000
25000
25000
25000
25000
)
;

boundaryField
{
    sides
    {
        type            zeroGradient;
    }
    empty
    {
        type            empty;
    }
}


// ************************************************************************* //
