/*--------------------------------*- C++ -*----------------------------------*\
| =========                 |                                                 |
| \\      /  F ield         | OpenFOAM: The Open Source CFD Toolbox           |
|  \\    /   O peration     | Version:  4.1                                   |
|   \\  /    A nd           | Web:      www.OpenFOAM.org                      |
|    \\/     M anipulation  |                                                 |
\*---------------------------------------------------------------------------*/
FoamFile
{
    version     2.0;
    format      ascii;
    class       surfaceScalarField;
    location    "0.0038";
    object      phi;
}
// * * * * * * * * * * * * * * * * * * * * * * * * * * * * * * * * * * * * * //

dimensions      [1 0 -1 0 0 0 0];

internalField   nonuniform List<scalar> 
999
(
-5.91811e-11
-5.66871e-11
-6.10143e-11
-5.72982e-11
-5.60263e-11
-5.79305e-11
-5.75042e-11
-5.88329e-11
-6.03251e-11
-6.15827e-11
-6.88658e-11
-7.32641e-11
-7.8181e-11
-7.25677e-11
-6.5171e-11
-6.30251e-11
-6.57607e-11
-6.04246e-11
-6.0453e-11
-5.60902e-11
-4.71658e-11
-4.68106e-11
-4.26184e-11
-3.77014e-11
-3.31752e-11
-3.40066e-11
-3.45608e-11
-3.47242e-11
-3.41842e-11
-3.90301e-11
-3.83267e-11
-3.36797e-11
-2.53735e-11
-1.92912e-11
-2.04849e-11
-2.00373e-11
-1.92983e-11
-2.68727e-11
-2.66596e-11
-2.85922e-11
-3.15339e-11
-3.64935e-11
-3.33458e-11
-2.67875e-11
-2.55227e-11
-2.40448e-11
-2.93312e-11
-2.99281e-11
-2.93525e-11
-2.83791e-11
-2.72635e-11
-2.52527e-11
-2.76188e-11
-2.84643e-11
-2.75193e-11
-2.36398e-11
-2.93383e-11
-2.40519e-11
-2.5409e-11
-2.23608e-11
-2.27018e-11
-2.26024e-11
-2.74341e-11
-2.59064e-11
-2.5409e-11
-3.1406e-11
-2.84217e-11
-2.28937e-11
-2.05702e-11
-1.29319e-11
-3.60245e-12
1.06581e-12
3.61666e-12
1.12266e-12
-4.49063e-12
-7.26885e-12
-1.60583e-12
-7.16938e-12
-6.79989e-12
-1.25198e-11
-1.62359e-11
-1.26619e-11
-1.22213e-11
-1.68399e-11
-1.0786e-11
-5.70566e-12
-6.98464e-12
-7.63123e-12
-5.27933e-12
-2.40163e-12
-1.54898e-12
-3.96483e-12
2.70006e-12
7.41096e-12
1.085e-11
1.97105e-11
2.46914e-11
3.55485e-11
3.89733e-11
4.42455e-11
3.80709e-11
3.80851e-11
3.18678e-11
3.05604e-11
3.5314e-11
3.3765e-11
3.93925e-11
3.54348e-11
2.86065e-11
2.73914e-11
2.30642e-11
2.03357e-11
2.27587e-11
3.01839e-11
3.57829e-11
3.82983e-11
3.26281e-11
3.55556e-11
3.8348e-11
3.99112e-11
4.36629e-11
4.20144e-11
4.43521e-11
4.36415e-11
3.83693e-11
2.94236e-11
3.24292e-11
3.58042e-11
3.19318e-11
3.34097e-11
3.73532e-11
3.6998e-11
2.92317e-11
2.34337e-11
2.40377e-11
1.70957e-11
1.25198e-11
1.18021e-11
1.4758e-11
1.29674e-11
1.27187e-11
1.75859e-11
1.81757e-11
1.74865e-11
2.17781e-11
2.38671e-11
2.17497e-11
2.28368e-11
2.46914e-11
2.7903e-11
2.59277e-11
2.71356e-11
2.32845e-11
2.1231e-11
2.68443e-11
2.61409e-11
3.35376e-11
3.18181e-11
2.54303e-11
2.53877e-11
2.59632e-11
2.68159e-11
2.64251e-11
2.40945e-11
1.65556e-11
1.92344e-11
2.08473e-11
2.16787e-11
2.39169e-11
2.8912e-11
3.44613e-11
3.80993e-11
3.82627e-11
4.5155e-11
4.74216e-11
3.91083e-11
3.8149e-11
3.81846e-11
3.98188e-11
3.40421e-11
2.99067e-11
2.75477e-11
2.91323e-11
2.89688e-11
2.77609e-11
3.28342e-11
3.14273e-11
2.93383e-11
3.14415e-11
3.0596e-11
2.44924e-11
1.84954e-11
1.77565e-11
1.76925e-11
1.35998e-11
1.35785e-11
1.54401e-11
1.28892e-11
1.11768e-11
1.12976e-11
8.95284e-12
1.03739e-11
1.80265e-11
1.49853e-11
1.72591e-11
1.35358e-11
9.74154e-12
2.21689e-12
1.06297e-11
1.64135e-11
2.44427e-11
2.5679e-11
2.93525e-11
3.65077e-11
3.65148e-11
3.0802e-11
3.51577e-11
3.69909e-11
4.30802e-11
4.81037e-11
4.394e-11
4.46221e-11
3.88596e-11
3.56977e-11
3.90088e-11
3.27134e-11
3.67848e-11
3.73959e-11
3.03828e-11
2.58567e-11
2.31779e-11
2.35261e-11
2.47269e-11
2.33911e-11
2.00373e-11
1.98028e-11
2.13802e-11
1.68683e-11
1.56959e-11
2.28439e-11
2.0755e-11
1.83391e-11
1.37206e-11
1.01892e-11
8.85336e-12
1.00187e-11
8.82494e-12
9.47864e-12
1.14113e-11
1.66409e-11
1.81899e-11
2.17071e-11
1.92344e-11
1.78773e-11
2.00231e-11
1.64491e-11
1.40901e-11
1.20224e-11
2.0286e-11
1.92912e-11
1.72236e-11
1.60014e-11
1.61862e-11
9.1589e-12
3.91509e-12
2.87059e-12
8.96705e-12
7.07701e-12
4.25615e-12
1.355e-11
1.91278e-11
1.8062e-11
1.91065e-11
1.9611e-11
2.66454e-11
2.98428e-11
3.48237e-11
3.9023e-11
3.26565e-11
3.33742e-11
3.20526e-11
2.85638e-11
2.63967e-11
2.3384e-11
2.5949e-11
2.75122e-11
2.81375e-11
2.32845e-11
1.84102e-11
1.42322e-11
1.98099e-11
2.07905e-11
1.57669e-11
2.32703e-11
2.98641e-11
3.00204e-11
3.33671e-11
4.26539e-11
6.3622e-11
1.22128e-10
2.53266e-10
5.59709e-10
1.25912e-09
2.8097e-09
6.19492e-09
1.35116e-08
2.91825e-08
6.24341e-08
1.32315e-07
2.77783e-07
5.77713e-07
1.19008e-06
2.42795e-06
4.90493e-06
9.81028e-06
1.94227e-05
3.80571e-05
7.3786e-05
0.000141525
0.000268482
0.00050364
0.000933982
0.00171181
0.00309991
0.00554482
0.00979328
0.0170734
0.0293699
0.0498303
0.0833496
0.13738
0.223011
0.356338
0.560099
0.865447
1.31363
1.95714
2.85973
4.09437
5.73818
7.86282
10.5174
13.6961
17.3308
21.355
25.7213
30.3873
35.3102
40.4483
45.7622
51.2164
56.7797
62.4254
68.131
73.8776
79.6496
85.4341
91.2203
96.9995
102.764
108.508
114.226
119.914
125.567
131.184
136.76
142.295
147.785
153.229
158.626
163.975
169.273
174.521
179.717
184.861
189.952
194.99
199.974
204.903
209.778
214.598
219.363
224.073
228.727
233.325
237.867
242.354
246.785
251.16
255.479
259.742
263.949
268.101
272.196
276.236
280.22
284.148
288.02
291.837
295.598
299.304
302.955
306.55
310.09
313.575
317.004
320.378
323.697
326.961
330.17
333.324
336.422
339.466
342.454
345.386
348.263
351.084
353.85
356.559
359.212
361.808
364.347
366.828
369.251
371.616
373.921
376.168
378.35
380.479
382.53
384.541
386.453
388.342
390.117
391.858
393.522
395.075
396.64
398.009
399.413
400.679
401.829
403.009
403.969
404.912
405.808
406.497
407.203
407.812
408.257
408.71
409.073
409.312
409.538
409.718
409.811
409.876
409.938
409.958
409.952
409.944
409.942
409.938
409.929
409.915
409.902
409.876
409.848
409.826
409.81
409.792
409.78
409.776
409.771
409.766
409.763
409.76
409.755
409.749
409.744
409.741
409.737
409.734
409.732
409.729
409.724
409.72
409.717
409.712
409.707
409.704
409.7
409.695
409.691
409.688
409.683
409.677
409.673
409.669
409.664
409.659
409.654
409.649
409.644
409.639
409.633
409.627
409.622
409.617
409.61
409.604
409.599
409.594
409.585
409.577
409.572
409.566
409.557
409.548
409.541
409.537
409.529
409.518
409.509
409.502
409.496
409.485
409.471
409.459
409.452
409.445
409.433
409.417
409.398
409.385
409.376
409.368
409.355
409.332
409.307
409.287
409.274
409.265
409.252
409.226
409.193
409.157
409.133
409.114
409.108
409.102
409.06
409.001
408.949
408.912
408.886
408.86
408.881
408.838
408.657
408.487
408.377
408.329
408.303
408.306
408.362
408.569
408.729
408.799
408.761
407.614
400.457
377.31
353.268
332.388
315.437
302.706
293.346
286.461
281.392
278.196
276.49
275.264
274.122
273.536
273.543
273.645
273.478
273.088
273.057
273.469
273.54
273.161
273.02
273.304
273.551
273.374
273.03
273.12
273.534
273.559
273.097
273.007
273.404
273.591
273.4
273.062
273.102
273.51
273.566
273.146
273.037
273.386
273.586
273.337
273.029
273.176
273.581
273.553
273.068
273.006
273.509
273.641
273.248
273
273.213
273.597
273.538
273.061
273.009
273.506
273.631
273.216
272.99
273.23
273.593
273.488
273.023
273.007
273.519
273.621
273.125
272.946
273.247
273.582
273.421
272.968
272.969
273.48
273.566
273.023
272.88
273.199
273.517
273.293
272.862
272.888
273.384
273.449
272.857
272.744
273.064
273.366
273.049
272.671
272.71
273.165
273.184
272.581
272.502
272.724
273.022
272.61
272.294
272.303
272.62
272.654
271.996
271.942
272.035
272.346
271.801
271.37
271.384
271.646
271.681
270.538
270.43
270.6
271.144
269.787
269.038
269.094
269.664
269.416
266.955
266.667
267.093
268.046
264.387
261.484
259.178
254.426
236.897
168.241
49.9299
13.7105
3.39077
0.810593
0.191997
0.0453628
0.010712
0.00252935
0.000597241
0.000141018
3.32951e-05
7.86072e-06
1.85577e-06
4.38091e-07
1.03412e-07
2.44063e-08
5.75643e-09
1.35431e-09
3.14548e-10
6.89191e-11
1.09512e-11
-3.61666e-12
-7.06279e-12
-6.03784e-12
-5.70033e-12
-3.93463e-12
-2.49933e-12
-1.65556e-12
-1.85807e-12
-3.38041e-12
-4.10694e-12
-4.90097e-12
-4.60609e-12
-2.86349e-12
-4.03055e-12
-3.46212e-12
-1.00364e-12
-2.83151e-12
-4.54392e-12
-2.54197e-12
-2.04636e-12
-2.5473e-12
-2.69829e-12
-1.36779e-12
-1.08002e-12
-1.96287e-12
-1.12088e-12
-2.6219e-12
-2.14229e-12
-7.51399e-13
-2.20801e-12
-8.88178e-13
-4.90274e-13
1.40332e-13
-1.07292e-12
-3.14948e-12
-3.96305e-12
-2.21689e-12
-1.43174e-12
-2.76046e-12
-4.32898e-12
-3.7339e-12
-4.04832e-12
-4.85123e-12
-5.24558e-12
-6.82654e-12
-5.97389e-12
-5.08038e-12
-4.41247e-12
-2.92921e-12
-2.6521e-12
-3.36087e-12
-4.41425e-12
-3.09441e-12
-2.49756e-12
-2.00373e-12
1.06581e-13
2.12452e-12
9.09495e-13
8.84626e-13
8.45546e-13
6.96332e-13
2.81375e-12
3.33422e-12
2.75158e-12
2.44427e-12
3.22942e-12
1.65201e-12
1.81011e-12
1.85452e-12
2.01084e-12
3.90799e-13
-1.34648e-12
-9.91207e-13
-3.22231e-12
-2.36078e-12
-3.05533e-12
-5.08571e-12
-5.60618e-12
-5.09459e-12
-3.51363e-12
-5.53335e-12
-5.86375e-12
-4.55103e-12
-3.91864e-12
-4.16378e-12
-4.69136e-12
-3.4337e-12
-3.05711e-12
-9.61009e-13
-2.04814e-12
-2.21512e-12
-3.55804e-12
-2.28617e-12
-9.50351e-13
1.20792e-13
3.85469e-13
-1.54188e-12
-1.95577e-12
-1.66267e-12
-2.36966e-12
-2.40519e-12
-1.94689e-12
-1.54721e-12
-9.41469e-14
5.64881e-13
1.38556e-13
2.29328e-12
3.33422e-12
5.21894e-12
6.48548e-12
7.65965e-12
8.16058e-12
7.57616e-12
8.4075e-12
6.68088e-12
4.93827e-12
4.30056e-12
3.36797e-12
3.76232e-12
4.05898e-12
5.45342e-12
6.1231e-12
4.63984e-12
5.42322e-12
5.20295e-12
5.43032e-12
6.10001e-12
6.27409e-12
7.3932e-12
8.32756e-12
8.75211e-12
9.2566e-12
9.83214e-12
9.35074e-12
8.7752e-12
8.12328e-12
7.68452e-12
6.30251e-12
4.85478e-12
4.57945e-12
3.24718e-12
4.57767e-12
5.68789e-12
5.82112e-12
5.30775e-12
3.51719e-12
1.60405e-12
-8.88178e-14
-7.76268e-13
-6.34159e-13
1.77636e-13
1.09246e-12
-1.40332e-13
6.66134e-13
9.23706e-14
-5.73763e-13
1.04272e-12
-2.98428e-13
1.06581e-14
1.88294e-13
7.86926e-13
1.05693e-12
2.53664e-12
4.46398e-12
4.27569e-12
3.76765e-12
1.90248e-12
1.81544e-12
2.70894e-12
3.09797e-12
3.90443e-12
2.23821e-12
8.88178e-13
2.50466e-12
2.07478e-12
1.00897e-12
6.14619e-13
5.40012e-13
7.56728e-13
2.46914e-12
4.1851e-12
2.71427e-12
1.06226e-12
2.16716e-12
2.58993e-12
1.32694e-12
8.91731e-13
3.01448e-12
3.91687e-12
3.75877e-12
3.05178e-12
3.32001e-12
2.0588e-12
3.77653e-12
5.97566e-12
7.30793e-12
5.96323e-12
6.49436e-12
7.08056e-12
9.0612e-12
9.7593e-12
1.1676e-11
1.24007e-11
1.25855e-11
1.07168e-11
8.29203e-12
7.28306e-12
8.67928e-12
8.40217e-12
8.60112e-12
8.39329e-12
1.04681e-11
1.18465e-11
1.21965e-11
1.18252e-11
1.24931e-11
1.44968e-11
1.49214e-11
1.59552e-11
1.80105e-11
1.91243e-11
1.88649e-11
1.99325e-11
2.28866e-11
2.51568e-11
2.55636e-11
2.64357e-11
2.51763e-11
2.50804e-11
2.56382e-11
2.38014e-11
2.13554e-11
2.08527e-11
2.09148e-11
2.06217e-11
1.99929e-11
2.14193e-11
1.95239e-11
1.83071e-11
1.54223e-11
1.65858e-11
1.45199e-11
1.28679e-11
1.20988e-11
1.32516e-11
1.47047e-11
1.36655e-11
1.42784e-11
1.58114e-11
1.60814e-11
1.46851e-11
1.36637e-11
1.16671e-11
1.21947e-11
1.35785e-11
1.49782e-11
1.62892e-11
1.80904e-11
1.8062e-11
1.87796e-11
1.87139e-11
2.05116e-11
2.01688e-11
1.8666e-11
1.90905e-11
1.8618e-11
1.73053e-11
1.78382e-11
1.90195e-11
1.89466e-11
1.92628e-11
1.80744e-11
1.87921e-11
)
;

boundaryField
{
    sides
    {
        type            calculated;
        value           nonuniform List<scalar> 2(1.7661e-11 5.64803e-11);
    }
    empty
    {
        type            empty;
        value           nonuniform 0();
    }
}


// ************************************************************************* //
