/*--------------------------------*- C++ -*----------------------------------*\
| =========                 |                                                 |
| \\      /  F ield         | OpenFOAM: The Open Source CFD Toolbox           |
|  \\    /   O peration     | Version:  4.1                                   |
|   \\  /    A nd           | Web:      www.OpenFOAM.org                      |
|    \\/     M anipulation  |                                                 |
\*---------------------------------------------------------------------------*/
FoamFile
{
    version     2.0;
    format      ascii;
    class       volScalarField;
    location    "0.0038";
    object      T;
}
// * * * * * * * * * * * * * * * * * * * * * * * * * * * * * * * * * * * * * //

dimensions      [0 0 0 1 0 0 0];

internalField   nonuniform List<scalar> 
1000
(
400
400
400
400
400
400
400
400
400
400
400
400
400
400
400
400
400
400
400
400
400
400
400
400
400
400
400
400
400
400
400
400
400
400
400
400
400
400
400
400
400
400
400
400
400
400
400
400
400
400
400
400
400
400
400
400
400
400
400
400
400
400
400
400
400
400
400
400
400
400
400
400
400
400
400
400
400
400
400
400
400
400
400
400
400
400
400
400
400
400
400
400
400
400
400
400
400
400
400
400
400
400
400
400
400
400
400
400
400
400
400
400
400
400
400
400
400
400
400
400
400
400
400
400
400
400
400
400
400
400
400
400
400
400
400
400
400
400
400
400
400
400
400
400
400
400
400
400
400
400
400
400
400
400
400
400
400
400
400
400
400
400
400
400
400
400
400
400
400
400
400
400
400
400
400
400
400
400
400
400
400
400
400
400
400
400
400
400
400
400
400
400
400
400
400
400
400
400
400
400
400
400
400
400
400
400
400
400
400
400
400
400
400
400
400
400
400
400
400
400
400
400
400
400
400
400
400
400
400
400
400
400
400
400
400
400
400
400
400
400
400
400
400
400
400
400
400
400
400
400
400
400
400
400
400
400
400
400
400
400
400
400
400
400
400
400
400
400
400
400
400
400
400
400
400
400
400
400
400
400
400
400
400
400
400
400
400
400
400
400
400
400
400
400
400
400
400
400
400
400
400
400
400
400
400
400
400
400
400
400
400
400
400
400
400
400
400
400
400
400
400
400
400
400
400
399.999
399.999
399.997
399.996
399.993
399.988
399.98
399.968
399.949
399.921
399.878
399.817
399.73
399.608
399.444
399.228
398.953
398.615
398.218
397.77
397.277
396.743
396.171
395.568
394.937
394.281
393.605
392.912
392.204
391.484
390.753
390.013
389.266
388.511
387.752
386.987
386.218
385.446
384.67
383.892
383.111
382.328
381.543
380.757
379.969
379.18
378.39
377.6
376.808
376.017
375.224
374.432
373.639
372.846
372.054
371.261
370.469
369.677
368.885
368.094
367.303
366.513
365.723
364.935
364.147
363.36
362.574
361.789
361.005
360.222
359.441
358.661
357.882
357.105
356.33
355.556
354.784
354.014
353.246
352.48
351.716
350.955
350.196
349.44
348.686
347.935
347.188
346.444
345.703
344.966
344.232
343.503
342.779
342.059
341.343
340.634
339.929
339.231
338.54
337.855
337.177
336.51
335.844
335.203
334.541
333.947
333.264
332.756
332.021
331.621
330.857
330.496
329.837
329.363
328.945
328.326
328.047
327.532
327.118
326.876
326.405
326.155
325.937
325.584
325.439
325.284
325.054
324.975
324.901
324.776
324.735
324.723
324.681
324.661
324.666
324.67
324.668
324.667
324.671
324.679
324.687
324.694
324.705
324.719
324.724
324.731
324.74
324.743
324.745
324.75
324.753
324.754
324.756
324.759
324.761
324.762
324.765
324.769
324.771
324.772
324.776
324.779
324.78
324.782
324.786
324.788
324.79
324.793
324.797
324.799
324.801
324.806
324.809
324.811
324.814
324.819
324.821
324.825
324.829
324.832
324.836
324.84
324.844
324.847
324.852
324.857
324.861
324.864
324.869
324.876
324.88
324.883
324.888
324.896
324.902
324.905
324.909
324.917
324.926
324.932
324.935
324.941
324.952
324.962
324.969
324.973
324.979
324.989
325.004
325.016
325.023
325.028
325.034
325.047
325.067
325.085
325.097
325.103
325.108
325.12
325.146
325.176
325.2
325.214
325.22
325.229
325.251
325.296
325.343
325.379
325.399
325.41
325.42
325.449
325.53
325.647
325.751
325.824
325.861
325.869
325.849
325.736
325.574
325.478
325.461
325.785
328.624
341.028
364.845
389.113
411.705
431.398
447.581
460.113
469.302
475.734
480.085
482.915
484.633
485.61
486.194
486.564
486.745
486.789
486.797
486.83
486.874
486.863
486.8
486.788
486.834
486.845
486.793
486.761
486.796
486.831
486.809
486.753
486.753
486.809
486.819
486.767
486.736
486.764
486.802
486.788
486.734
486.731
486.784
486.792
486.735
486.71
486.755
486.787
486.752
486.701
486.715
486.774
486.774
486.708
486.69
486.741
486.77
486.73
486.681
486.696
486.753
486.751
486.686
486.671
486.726
486.752
486.706
486.66
486.682
486.737
486.729
486.66
486.65
486.709
486.732
486.676
486.635
486.661
486.715
486.701
486.63
486.623
486.682
486.701
486.636
486.597
486.624
486.674
486.65
486.58
486.575
486.63
486.643
486.565
486.532
486.555
486.598
486.559
486.493
486.487
486.525
486.533
486.447
486.417
486.419
486.45
486.402
486.325
486.311
486.32
486.325
486.196
486.153
486.154
486.179
486.077
485.943
485.913
485.907
485.899
485.657
485.553
485.508
485.57
485.346
485.005
484.89
484.944
484.855
483.958
483.34
482.116
479.52
474.047
435.644
410.328
402.664
400.645
400.153
400.036
400.009
400.002
400
400
400
400
400
400
400
400
400
400
400
400
400
400
400
400
400
400
400
400
400
400
400
400
400
400
400
400
400
400
400
400
400
400
400
400
400
400
400
400
400
400
400
400
400
400
400
400
400
400
400
400
400
400
400
400
400
400
400
400
400
400
400
400
400
400
400
400
400
400
400
400
400
400
400
400
400
400
400
400
400
400
400
400
400
400
400
400
400
400
400
400
400
400
400
400
400
400
400
400
400
400
400
400
400
400
400
400
400
400
400
400
400
400
400
400
400
400
400
400
400
400
400
400
400
400
400
400
400
400
400
400
400
400
400
400
400
400
400
400
400
400
400
400
400
400
400
400
400
400
400
400
400
400
400
400
400
400
400
400
400
400
400
400
400
400
400
400
400
400
400
400
400
400
400
400
400
400
400
400
400
400
400
400
400
400
400
400
400
400
400
400
400
400
400
400
400
400
400
400
400
400
400
400
400
400
400
400
400
400
400
400
400
400
400
400
400
400
400
400
400
400
400
400
400
400
400
400
400
400
400
400
400
400
400
400
400
400
400
400
400
400
400
400
400
400
400
400
400
400
400
400
400
400
400
400
400
400
400
400
400
400
400
400
400
400
400
400
400
400
400
400
400
400
400
400
400
400
400
400
400
400
400
400
400
400
400
)
;

boundaryField
{
    sides
    {
        type            zeroGradient;
    }
    empty
    {
        type            empty;
    }
}


// ************************************************************************* //
