/*--------------------------------*- C++ -*----------------------------------*\
| =========                 |                                                 |
| \\      /  F ield         | OpenFOAM: The Open Source CFD Toolbox           |
|  \\    /   O peration     | Version:  4.1                                   |
|   \\  /    A nd           | Web:      www.OpenFOAM.org                      |
|    \\/     M anipulation  |                                                 |
\*---------------------------------------------------------------------------*/
FoamFile
{
    version     2.0;
    format      ascii;
    class       volVectorField;
    location    "0.0038";
    object      U;
}
// * * * * * * * * * * * * * * * * * * * * * * * * * * * * * * * * * * * * * //

dimensions      [0 1 -1 0 0 0 0];

internalField   nonuniform List<vector> 
1000
(
(-1.62493e-11 0 0)
(-1.6801e-11 0 0)
(-1.71704e-11 0 0)
(-1.70335e-11 0 0)
(-1.59739e-11 0 0)
(-1.63471e-11 0 0)
(-1.64953e-11 0 0)
(-1.71115e-11 0 0)
(-1.64311e-11 0 0)
(-1.85192e-11 0 0)
(-1.75623e-11 0 0)
(-2.08648e-11 0 0)
(-2.17713e-11 0 0)
(-2.29598e-11 0 0)
(-1.86238e-11 0 0)
(-1.91346e-11 0 0)
(-1.78081e-11 0 0)
(-1.92853e-11 0 0)
(-1.61302e-11 0 0)
(-1.81659e-11 0 0)
(-1.32899e-11 0 0)
(-1.43814e-11 0 0)
(-1.21171e-11 0 0)
(-1.31784e-11 0 0)
(-8.00728e-12 0 0)
(-1.08759e-11 0 0)
(-9.10309e-12 0 0)
(-1.05497e-11 0 0)
(-9.85242e-12 0 0)
(-1.03271e-11 0 0)
(-1.17486e-11 0 0)
(-9.82332e-12 0 0)
(-9.53705e-12 0 0)
(-5.28284e-12 0 0)
(-6.52223e-12 0 0)
(-4.47823e-12 0 0)
(-7.30861e-12 0 0)
(-4.37427e-12 0 0)
(-1.0244e-11 0 0)
(-5.62346e-12 0 0)
(-1.05935e-11 0 0)
(-8.09879e-12 0 0)
(-1.24438e-11 0 0)
(-6.87504e-12 0 0)
(-8.34603e-12 0 0)
(-6.46018e-12 0 0)
(-7.61076e-12 0 0)
(-8.79563e-12 0 0)
(-9.24046e-12 0 0)
(-6.88162e-12 0 0)
(-9.71657e-12 0 0)
(-5.79322e-12 0 0)
(-8.46841e-12 0 0)
(-8.27689e-12 0 0)
(-7.28577e-12 0 0)
(-8.16643e-12 0 0)
(-6.26669e-12 0 0)
(-9.6946e-12 0 0)
(-5.0024e-12 0 0)
(-8.4525e-12 0 0)
(-5.03668e-12 0 0)
(-7.4726e-12 0 0)
(-6.76175e-12 0 0)
(-8.10711e-12 0 0)
(-6.41633e-12 0 0)
(-8.92775e-12 0 0)
(-8.14167e-12 0 0)
(-9.02507e-12 0 0)
(-4.58386e-12 0 0)
(-6.75449e-12 0 0)
(-4.59842e-13 0 0)
(-1.75548e-12 0 0)
(2.38266e-12 0 0)
(-4.94615e-13 0 0)
(1.27813e-12 0 0)
(-4.13806e-12 0 0)
(3.72054e-13 0 0)
(-1.57636e-12 0 0)
(-1.79853e-12 0 0)
(-2.7476e-12 0 0)
(-3.88025e-12 0 0)
(-4.91577e-12 0 0)
(-3.03214e-12 0 0)
(-4.44381e-12 0 0)
(-4.84746e-12 0 0)
(-8.66901e-13 0 0)
(-2.77975e-12 0 0)
(-1.0214e-12 0 0)
(-3.39007e-12 0 0)
(6.74825e-13 0 0)
(-2.02908e-12 0 0)
(7.99764e-13 0 0)
(-2.57911e-12 0 0)
(3.8193e-12 0 0)
(8.07767e-13 0 0)
(5.65937e-12 0 0)
(5.30487e-12 0 0)
(9.50888e-12 0 0)
(1.01669e-11 0 0)
(1.28085e-11 0 0)
(1.18217e-11 0 0)
(1.07172e-11 0 0)
(1.08023e-11 0 0)
(7.41257e-12 0 0)
(1.06169e-11 0 0)
(9.47318e-12 0 0)
(1.05988e-11 0 0)
(1.13132e-11 0 0)
(8.64198e-12 0 0)
(8.28707e-12 0 0)
(7.56696e-12 0 0)
(5.49732e-12 0 0)
(6.17378e-12 0 0)
(7.32541e-12 0 0)
(9.44141e-12 0 0)
(1.1629e-11 0 0)
(9.97828e-12 0 0)
(9.3928e-12 0 0)
(1.07199e-11 0 0)
(1.14921e-11 0 0)
(1.15753e-11 0 0)
(1.32875e-11 0 0)
(1.15076e-11 0 0)
(1.36916e-11 0 0)
(1.11001e-11 0 0)
(1.00861e-11 0 0)
(7.83823e-12 0 0)
(1.06048e-11 0 0)
(9.14727e-12 0 0)
(9.927e-12 0 0)
(1.00098e-11 0 0)
(1.06465e-11 0 0)
(1.01466e-11 0 0)
(7.07731e-12 0 0)
(6.8754e-12 0 0)
(6.20362e-12 0 0)
(4.31723e-12 0 0)
(3.04337e-12 0 0)
(3.72044e-12 0 0)
(4.33504e-12 0 0)
(2.68028e-12 0 0)
(5.06642e-12 0 0)
(5.54838e-12 0 0)
(4.68237e-12 0 0)
(5.0989e-12 0 0)
(6.89561e-12 0 0)
(7.35287e-12 0 0)
(5.4492e-12 0 0)
(7.42824e-12 0 0)
(6.76872e-12 0 0)
(8.82345e-12 0 0)
(6.61897e-12 0 0)
(9.01536e-12 0 0)
(4.42995e-12 0 0)
(7.60849e-12 0 0)
(7.36582e-12 0 0)
(8.4527e-12 0 0)
(1.01787e-11 0 0)
(8.10155e-12 0 0)
(7.01506e-12 0 0)
(7.8326e-12 0 0)
(7.27173e-12 0 0)
(7.45238e-12 0 0)
(8.2972e-12 0 0)
(5.0754e-12 0 0)
(4.77328e-12 0 0)
(6.13479e-12 0 0)
(5.6355e-12 0 0)
(6.96782e-12 0 0)
(6.96818e-12 0 0)
(8.91866e-12 0 0)
(1.13269e-11 0 0)
(1.03116e-11 0 0)
(1.24553e-11 0 0)
(1.31271e-11 0 0)
(1.34117e-11 0 0)
(9.6628e-12 0 0)
(1.22348e-11 0 0)
(9.90501e-12 0 0)
(1.23707e-11 0 0)
(7.87232e-12 0 0)
(8.71196e-12 0 0)
(7.77922e-12 0 0)
(8.53165e-12 0 0)
(7.26701e-12 0 0)
(9.6497e-12 0 0)
(8.86138e-12 0 0)
(8.74422e-12 0 0)
(8.70182e-12 0 0)
(9.02918e-12 0 0)
(8.85897e-12 0 0)
(4.63085e-12 0 0)
(6.52288e-12 0 0)
(4.03599e-12 0 0)
(5.45229e-12 0 0)
(2.86064e-12 0 0)
(5.40425e-12 0 0)
(2.6807e-12 0 0)
(5.28164e-12 0 0)
(1.31229e-12 0 0)
(4.84141e-12 0 0)
(5.73982e-13 0 0)
(5.57389e-12 0 0)
(4.11695e-12 0 0)
(5.32844e-12 0 0)
(3.96499e-12 0 0)
(3.99794e-12 0 0)
(9.31158e-13 0 0)
(8.15136e-13 0 0)
(4.23691e-12 0 0)
(6.2807e-12 0 0)
(7.26536e-12 0 0)
(7.1055e-12 0 0)
(1.05325e-11 0 0)
(9.9315e-12 0 0)
(1.07138e-11 0 0)
(7.27492e-12 0 0)
(1.27015e-11 0 0)
(9.15182e-12 0 0)
(1.51522e-11 0 0)
(1.18753e-11 0 0)
(1.45965e-11 0 0)
(9.76794e-12 0 0)
(1.3147e-11 0 0)
(8.09431e-12 0 0)
(1.29137e-11 0 0)
(7.27673e-12 0 0)
(1.28815e-11 0 0)
(9.16617e-12 0 0)
(8.47607e-12 0 0)
(6.62911e-12 0 0)
(6.34927e-12 0 0)
(7.76774e-12 0 0)
(5.6484e-12 0 0)
(7.99259e-12 0 0)
(4.30882e-12 0 0)
(7.32897e-12 0 0)
(4.14738e-12 0 0)
(5.70343e-12 0 0)
(4.18829e-12 0 0)
(8.14757e-12 0 0)
(3.60812e-12 0 0)
(7.33709e-12 0 0)
(4.90132e-13 0 0)
(4.70273e-12 0 0)
(1.26047e-12 0 0)
(3.70859e-12 0 0)
(1.89201e-12 0 0)
(3.11632e-12 0 0)
(3.74632e-12 0 0)
(5.61186e-12 0 0)
(5.26357e-12 0 0)
(6.93975e-12 0 0)
(3.88635e-12 0 0)
(6.79862e-12 0 0)
(4.36073e-12 0 0)
(5.23289e-12 0 0)
(2.63026e-12 0 0)
(4.88176e-12 0 0)
(5.79292e-12 0 0)
(5.88154e-12 0 0)
(4.35195e-12 0 0)
(5.0076e-12 0 0)
(3.8804e-12 0 0)
(1.68882e-12 0 0)
(3.94291e-13 0 0)
(1.38844e-12 0 0)
(3.55304e-12 0 0)
(5.15833e-13 0 0)
(2.1497e-12 0 0)
(5.19896e-12 0 0)
(6.04166e-12 0 0)
(4.90846e-12 0 0)
(5.64193e-12 0 0)
(5.6181e-12 0 0)
(9.53494e-12 0 0)
(7.63017e-12 0 0)
(1.27188e-11 0 0)
(9.041e-12 0 0)
(1.07259e-11 0 0)
(7.92641e-12 0 0)
(9.83796e-12 0 0)
(6.88535e-12 0 0)
(7.77762e-12 0 0)
(6.50152e-12 0 0)
(8.49076e-12 0 0)
(7.25574e-12 0 0)
(8.17777e-12 0 0)
(5.50029e-12 0 0)
(4.41041e-12 0 0)
(4.44817e-12 0 0)
(6.54976e-12 0 0)
(4.97979e-12 0 0)
(4.58912e-12 0 0)
(8.07346e-12 0 0)
(9.01436e-12 0 0)
(9.04408e-12 0 0)
(1.0562e-11 0 0)
(1.47497e-11 0 0)
(2.39968e-11 0 0)
(4.98467e-11 0 0)
(1.04679e-10 0 0)
(2.366e-10 0 0)
(5.29549e-10 0 0)
(1.17777e-09 0 0)
(2.583e-09 0 0)
(5.61058e-09 0 0)
(1.20685e-08 0 0)
(2.57153e-08 0 0)
(5.42767e-08 0 0)
(1.13487e-07 0 0)
(2.35054e-07 0 0)
(4.82185e-07 0 0)
(9.79547e-07 0 0)
(1.97028e-06 0 0)
(3.92325e-06 0 0)
(7.7322e-06 0 0)
(1.50804e-05 0 0)
(2.90996e-05 0 0)
(5.55433e-05 0 0)
(0.000104845 0 0)
(0.000195673 0 0)
(0.000360968 0 0)
(0.000658023 0 0)
(0.00118501 0 0)
(0.00210752 0 0)
(0.0037004 0 0)
(0.00641197 0 0)
(0.0109605 0 0)
(0.0184749 0 0)
(0.0306934 0 0)
(0.0502343 0 0)
(0.0809493 0 0)
(0.128359 0 0)
(0.200151 0 0)
(0.306696 0 0)
(0.461479 0 0)
(0.681305 0 0)
(0.986054 0 0)
(1.39771 0 0)
(1.93824 0 0)
(2.62564 0 0)
(3.46701 0 0)
(4.45428 0 0)
(5.57141 0 0)
(6.80415 0 0)
(8.14114 0 0)
(9.57163 0 0)
(11.0848 0 0)
(12.6701 0 0)
(14.3178 0 0)
(16.0189 0 0)
(17.7657 0 0)
(19.5517 0 0)
(21.3711 0 0)
(23.2194 0 0)
(25.0925 0 0)
(26.9872 0 0)
(28.9007 0 0)
(30.8307 0 0)
(32.7754 0 0)
(34.733 0 0)
(36.7022 0 0)
(38.6818 0 0)
(40.6707 0 0)
(42.6679 0 0)
(44.6728 0 0)
(46.6845 0 0)
(48.7026 0 0)
(50.7263 0 0)
(52.7553 0 0)
(54.789 0 0)
(56.827 0 0)
(58.869 0 0)
(60.9147 0 0)
(62.9636 0 0)
(65.0155 0 0)
(67.0701 0 0)
(69.1272 0 0)
(71.1865 0 0)
(73.2477 0 0)
(75.3107 0 0)
(77.3751 0 0)
(79.4409 0 0)
(81.5077 0 0)
(83.5754 0 0)
(85.6438 0 0)
(87.7127 0 0)
(89.7819 0 0)
(91.8512 0 0)
(93.9203 0 0)
(95.9892 0 0)
(98.0576 0 0)
(100.125 0 0)
(102.192 0 0)
(104.258 0 0)
(106.322 0 0)
(108.385 0 0)
(110.446 0 0)
(112.505 0 0)
(114.561 0 0)
(116.615 0 0)
(118.667 0 0)
(120.715 0 0)
(122.76 0 0)
(124.801 0 0)
(126.838 0 0)
(128.87 0 0)
(130.898 0 0)
(132.921 0 0)
(134.937 0 0)
(136.948 0 0)
(138.952 0 0)
(140.949 0 0)
(142.939 0 0)
(144.919 0 0)
(146.891 0 0)
(148.853 0 0)
(150.805 0 0)
(152.745 0 0)
(154.673 0 0)
(156.588 0 0)
(158.488 0 0)
(160.373 0 0)
(162.241 0 0)
(164.09 0 0)
(165.92 0 0)
(167.729 0 0)
(169.514 0 0)
(171.274 0 0)
(173.008 0 0)
(174.71 0 0)
(176.382 0 0)
(178.018 0 0)
(179.617 0 0)
(181.174 0 0)
(182.687 0 0)
(184.153 0 0)
(185.565 0 0)
(186.925 0 0)
(188.222 0 0)
(189.456 0 0)
(190.622 0 0)
(191.715 0 0)
(192.733 0 0)
(193.67 0 0)
(194.524 0 0)
(195.295 0 0)
(195.978 0 0)
(196.575 0 0)
(197.089 0 0)
(197.518 0 0)
(197.872 0 0)
(198.153 0 0)
(198.367 0 0)
(198.526 0 0)
(198.637 0 0)
(198.706 0 0)
(198.747 0 0)
(198.764 0 0)
(198.768 0 0)
(198.768 0 0)
(198.767 0 0)
(198.764 0 0)
(198.755 0 0)
(198.738 0 0)
(198.713 0 0)
(198.685 0 0)
(198.659 0 0)
(198.637 0 0)
(198.621 0 0)
(198.608 0 0)
(198.6 0 0)
(198.596 0 0)
(198.593 0 0)
(198.591 0 0)
(198.59 0 0)
(198.588 0 0)
(198.587 0 0)
(198.585 0 0)
(198.584 0 0)
(198.583 0 0)
(198.583 0 0)
(198.582 0 0)
(198.581 0 0)
(198.581 0 0)
(198.58 0 0)
(198.579 0 0)
(198.578 0 0)
(198.577 0 0)
(198.577 0 0)
(198.576 0 0)
(198.575 0 0)
(198.575 0 0)
(198.574 0 0)
(198.573 0 0)
(198.573 0 0)
(198.572 0 0)
(198.571 0 0)
(198.57 0 0)
(198.57 0 0)
(198.569 0 0)
(198.568 0 0)
(198.568 0 0)
(198.567 0 0)
(198.567 0 0)
(198.566 0 0)
(198.565 0 0)
(198.565 0 0)
(198.564 0 0)
(198.563 0 0)
(198.563 0 0)
(198.562 0 0)
(198.562 0 0)
(198.561 0 0)
(198.56 0 0)
(198.56 0 0)
(198.559 0 0)
(198.559 0 0)
(198.558 0 0)
(198.558 0 0)
(198.557 0 0)
(198.557 0 0)
(198.556 0 0)
(198.556 0 0)
(198.555 0 0)
(198.555 0 0)
(198.554 0 0)
(198.554 0 0)
(198.553 0 0)
(198.552 0 0)
(198.552 0 0)
(198.551 0 0)
(198.55 0 0)
(198.55 0 0)
(198.549 0 0)
(198.548 0 0)
(198.548 0 0)
(198.547 0 0)
(198.546 0 0)
(198.545 0 0)
(198.544 0 0)
(198.544 0 0)
(198.543 0 0)
(198.543 0 0)
(198.542 0 0)
(198.542 0 0)
(198.541 0 0)
(198.54 0 0)
(198.54 0 0)
(198.541 0 0)
(198.541 0 0)
(198.541 0 0)
(198.541 0 0)
(198.54 0 0)
(198.539 0 0)
(198.538 0 0)
(198.539 0 0)
(198.541 0 0)
(198.541 0 0)
(198.538 0 0)
(198.536 0 0)
(198.535 0 0)
(198.535 0 0)
(198.535 0 0)
(198.536 0 0)
(198.541 0 0)
(198.552 0 0)
(198.567 0 0)
(198.597 0 0)
(198.667 0 0)
(198.833 0 0)
(198.905 0 0)
(198.771 0 0)
(198.618 0 0)
(198.508 0 0)
(198.46 0 0)
(198.474 0 0)
(198.502 0 0)
(198.502 0 0)
(198.491 0 0)
(198.509 0 0)
(198.541 0 0)
(198.539 0 0)
(198.51 0 0)
(198.504 0 0)
(198.535 0 0)
(198.554 0 0)
(198.531 0 0)
(198.502 0 0)
(198.516 0 0)
(198.546 0 0)
(198.54 0 0)
(198.504 0 0)
(198.496 0 0)
(198.527 0 0)
(198.542 0 0)
(198.512 0 0)
(198.488 0 0)
(198.513 0 0)
(198.545 0 0)
(198.53 0 0)
(198.492 0 0)
(198.494 0 0)
(198.531 0 0)
(198.545 0 0)
(198.513 0 0)
(198.486 0 0)
(198.506 0 0)
(198.538 0 0)
(198.528 0 0)
(198.493 0 0)
(198.491 0 0)
(198.525 0 0)
(198.535 0 0)
(198.501 0 0)
(198.48 0 0)
(198.509 0 0)
(198.539 0 0)
(198.516 0 0)
(198.477 0 0)
(198.487 0 0)
(198.528 0 0)
(198.53 0 0)
(198.488 0 0)
(198.47 0 0)
(198.503 0 0)
(198.531 0 0)
(198.504 0 0)
(198.464 0 0)
(198.475 0 0)
(198.515 0 0)
(198.514 0 0)
(198.471 0 0)
(198.454 0 0)
(198.488 0 0)
(198.511 0 0)
(198.479 0 0)
(198.44 0 0)
(198.454 0 0)
(198.492 0 0)
(198.483 0 0)
(198.436 0 0)
(198.421 0 0)
(198.455 0 0)
(198.473 0 0)
(198.434 0 0)
(198.392 0 0)
(198.406 0 0)
(198.439 0 0)
(198.422 0 0)
(198.369 0 0)
(198.353 0 0)
(198.382 0 0)
(198.391 0 0)
(198.343 0 0)
(198.295 0 0)
(198.305 0 0)
(198.33 0 0)
(198.3 0 0)
(198.237 0 0)
(198.214 0 0)
(198.234 0 0)
(198.227 0 0)
(198.164 0 0)
(198.107 0 0)
(198.105 0 0)
(198.112 0 0)
(198.061 0 0)
(197.983 0 0)
(197.944 0 0)
(197.94 0 0)
(197.907 0 0)
(197.82 0 0)
(197.743 0 0)
(197.706 0 0)
(197.677 0 0)
(197.594 0 0)
(197.481 0 0)
(197.402 0 0)
(197.351 0 0)
(197.271 0 0)
(197.125 0 0)
(196.984 0 0)
(196.891 0 0)
(196.801 0 0)
(196.625 0 0)
(196.4 0 0)
(196.23 0 0)
(196.106 0 0)
(195.912 0 0)
(195.589 0 0)
(195.28 0 0)
(195.06 0 0)
(194.836 0 0)
(194.4 0 0)
(193.826 0 0)
(193.388 0 0)
(193.099 0 0)
(192.529 0 0)
(191.264 0 0)
(189.411 0 0)
(186.29 0 0)
(178.781 0 0)
(151.946 0 0)
(87.1516 0 0)
(27.3275 0 0)
(7.0992 0 0)
(1.72759 0 0)
(0.411306 0 0)
(0.0973059 0 0)
(0.0229848 0 0)
(0.00542748 0 0)
(0.00128158 0 0)
(0.000302606 0 0)
(7.1448e-05 0 0)
(1.68686e-05 0 0)
(3.98244e-06 0 0)
(9.4015e-07 0 0)
(2.21932e-07 0 0)
(5.2383e-08 0 0)
(1.23591e-08 0 0)
(2.91142e-09 0 0)
(6.82499e-10 0 0)
(1.529e-10 0 0)
(3.12082e-11 0 0)
(-1.32787e-12 0 0)
(-5.41551e-12 0 0)
(-9.23626e-12 0 0)
(-5.4093e-12 0 0)
(-7.18771e-12 0 0)
(-2.24017e-12 0 0)
(-3.86512e-12 0 0)
(4.05959e-13 0 0)
(-4.54553e-12 0 0)
(-3.64411e-12 0 0)
(-5.6809e-12 0 0)
(-5.08938e-12 0 0)
(-4.95344e-12 0 0)
(-2.30094e-12 0 0)
(-6.82643e-12 0 0)
(-4.676e-13 0 0)
(-2.11044e-12 0 0)
(-4.85022e-12 0 0)
(-4.87202e-12 0 0)
(-1.30408e-12 0 0)
(-3.18912e-12 0 0)
(-3.22363e-12 0 0)
(-2.38948e-12 0 0)
(-8.32368e-13 0 0)
(-1.91111e-12 0 0)
(-2.75584e-12 0 0)
(2.63664e-13 0 0)
(-5.78791e-12 0 0)
(1.05275e-12 0 0)
(-3.24946e-12 0 0)
(-8.97578e-13 0 0)
(-1.70741e-12 0 0)
(9.06871e-13 0 0)
(-7.3188e-13 0 0)
(-1.54428e-12 0 0)
(-5.56958e-12 0 0)
(-3.23646e-12 0 0)
(-2.16802e-12 0 0)
(-1.25024e-12 0 0)
(-5.26917e-12 0 0)
(-4.43629e-12 0 0)
(-3.86935e-12 0 0)
(-6.18252e-12 0 0)
(-4.34283e-12 0 0)
(-8.14804e-12 0 0)
(-7.42893e-12 0 0)
(-6.3998e-12 0 0)
(-5.04994e-12 0 0)
(-5.18404e-12 0 0)
(-1.85478e-12 0 0)
(-3.80202e-12 0 0)
(-4.47512e-12 0 0)
(-5.03072e-12 0 0)
(-2.5204e-12 0 0)
(-3.08759e-12 0 0)
(-1.13542e-12 0 0)
(1.30326e-12 0 0)
(3.05628e-12 0 0)
(-6.5468e-13 0 0)
(2.68066e-12 0 0)
(-6.61476e-13 0 0)
(2.46914e-12 0 0)
(3.49841e-12 0 0)
(3.90204e-12 0 0)
(2.22532e-12 0 0)
(4.01301e-12 0 0)
(2.84514e-12 0 0)
(5.55741e-13 0 0)
(4.11706e-12 0 0)
(5.51717e-13 0 0)
(3.49059e-12 0 0)
(-2.51606e-12 0 0)
(-2.00061e-13 0 0)
(-2.48301e-12 0 0)
(-3.97888e-12 0 0)
(-2.24054e-12 0 0)
(-4.4876e-12 0 0)
(-7.56927e-12 0 0)
(-4.64747e-12 0 0)
(-6.27179e-12 0 0)
(-2.73751e-12 0 0)
(-9.31929e-12 0 0)
(-4.07958e-12 0 0)
(-6.54208e-12 0 0)
(-2.02709e-12 0 0)
(-7.7122e-12 0 0)
(-3.40231e-12 0 0)
(-4.43313e-12 0 0)
(-2.10837e-12 0 0)
(-5.78096e-13 0 0)
(-3.29381e-12 0 0)
(-2.63942e-12 0 0)
(-4.73829e-12 0 0)
(-1.09362e-12 0 0)
(-1.2074e-12 0 0)
(1.58327e-12 0 0)
(-7.85076e-13 0 0)
(-2.62182e-12 0 0)
(-1.60154e-12 0 0)
(-2.56176e-12 0 0)
(-2.82687e-12 0 0)
(-2.37608e-12 0 0)
(-2.22889e-12 0 0)
(-1.5858e-12 0 0)
(1.48672e-12 0 0)
(-5.22608e-13 0 0)
(9.82851e-13 0 0)
(3.99999e-12 0 0)
(3.67842e-12 0 0)
(7.85373e-12 0 0)
(7.36908e-12 0 0)
(1.0285e-11 0 0)
(8.54282e-12 0 0)
(9.45505e-12 0 0)
(9.15873e-12 0 0)
(6.65068e-12 0 0)
(4.91941e-12 0 0)
(4.52096e-12 0 0)
(3.75875e-12 0 0)
(4.44249e-12 0 0)
(4.96789e-12 0 0)
(8.25361e-12 0 0)
(5.04668e-12 0 0)
(5.95571e-12 0 0)
(5.86589e-12 0 0)
(6.59478e-12 0 0)
(6.48787e-12 0 0)
(6.82137e-12 0 0)
(7.74307e-12 0 0)
(9.92253e-12 0 0)
(8.79668e-12 0 0)
(1.06481e-11 0 0)
(1.11214e-11 0 0)
(1.13628e-11 0 0)
(1.03905e-11 0 0)
(9.3729e-12 0 0)
(9.5636e-12 0 0)
(8.01979e-12 0 0)
(6.30749e-12 0 0)
(5.13035e-12 0 0)
(5.04321e-12 0 0)
(3.00108e-12 0 0)
(6.81178e-12 0 0)
(7.07544e-12 0 0)
(6.15621e-12 0 0)
(5.49993e-12 0 0)
(2.7794e-12 0 0)
(1.32144e-12 0 0)
(-1.66567e-12 0 0)
(-5.19783e-14 0 0)
(-1.19751e-12 0 0)
(1.74341e-12 0 0)
(4.29076e-13 0 0)
(-9.2397e-13 0 0)
(2.84908e-12 0 0)
(-2.74964e-12 0 0)
(1.66324e-12 0 0)
(3.33201e-13 0 0)
(-7.78728e-13 0 0)
(6.98483e-13 0 0)
(-4.62069e-14 0 0)
(1.42335e-12 0 0)
(1.42515e-12 0 0)
(4.65662e-12 0 0)
(4.97774e-12 0 0)
(4.92191e-12 0 0)
(3.50817e-12 0 0)
(1.12371e-12 0 0)
(3.31723e-12 0 0)
(2.48827e-12 0 0)
(4.99397e-12 0 0)
(3.76684e-12 0 0)
(9.42023e-13 0 0)
(1.46377e-12 0 0)
(3.74566e-12 0 0)
(1.51637e-12 0 0)
(4.0948e-13 0 0)
(1.36491e-12 0 0)
(-4.31366e-13 0 0)
(2.49046e-12 0 0)
(2.86374e-12 0 0)
(6.55414e-12 0 0)
(-2.8451e-13 0 0)
(2.82911e-12 0 0)
(2.54422e-12 0 0)
(3.13133e-12 0 0)
(-3.00996e-13 0 0)
(2.51692e-12 0 0)
(4.13466e-12 0 0)
(5.44318e-12 0 0)
(3.05965e-12 0 0)
(3.3605e-12 0 0)
(3.92506e-12 0 0)
(1.36193e-12 0 0)
(6.82609e-12 0 0)
(7.52601e-12 0 0)
(8.36274e-12 0 0)
(6.14568e-12 0 0)
(8.08992e-12 0 0)
(8.86644e-12 0 0)
(1.13738e-11 0 0)
(1.17844e-11 0 0)
(1.44516e-11 0 0)
(1.45839e-11 0 0)
(1.3744e-11 0 0)
(1.0474e-11 0 0)
(8.93296e-12 0 0)
(8.74449e-12 0 0)
(1.02044e-11 0 0)
(9.72235e-12 0 0)
(9.64758e-12 0 0)
(1.03703e-11 0 0)
(1.3245e-11 0 0)
(1.39402e-11 0 0)
(1.38307e-11 0 0)
(1.36485e-11 0 0)
(1.58536e-11 0 0)
(1.67904e-11 0 0)
(1.76955e-11 0 0)
(1.88748e-11 0 0)
(2.25268e-11 0 0)
(2.0859e-11 0 0)
(2.30135e-11 0 0)
(2.3416e-11 0 0)
(2.8808e-11 0 0)
(2.86311e-11 0 0)
(3.05919e-11 0 0)
(2.93908e-11 0 0)
(2.94264e-11 0 0)
(2.87824e-11 0 0)
(2.89509e-11 0 0)
(2.57029e-11 0 0)
(2.43556e-11 0 0)
(2.40734e-11 0 0)
(2.38569e-11 0 0)
(2.32754e-11 0 0)
(2.36394e-11 0 0)
(2.41901e-11 0 0)
(2.16785e-11 0 0)
(1.93794e-11 0 0)
(1.74544e-11 0 0)
(1.9285e-11 0 0)
(1.46226e-11 0 0)
(1.46865e-11 0 0)
(1.41762e-11 0 0)
(1.67002e-11 0 0)
(1.60326e-11 0 0)
(1.66581e-11 0 0)
(1.59675e-11 0 0)
(1.97478e-11 0 0)
(1.66003e-11 0 0)
(1.70946e-11 0 0)
(1.39083e-11 0 0)
(1.40822e-11 0 0)
(1.44057e-11 0 0)
(1.6147e-11 0 0)
(1.81565e-11 0 0)
(1.97023e-11 0 0)
(2.13543e-11 0 0)
(2.0819e-11 0 0)
(2.16921e-11 0 0)
(2.24164e-11 0 0)
(2.40906e-11 0 0)
(2.18441e-11 0 0)
(2.20301e-11 0 0)
(2.08595e-11 0 0)
(2.18345e-11 0 0)
(1.83983e-11 0 0)
(2.27679e-11 0 0)
(2.03522e-11 0 0)
(2.35472e-11 0 0)
(2.03927e-11 0 0)
(2.213e-11 0 0)
(2.03475e-11 0 0)
)
;

boundaryField
{
    sides
    {
        type            zeroGradient;
    }
    empty
    {
        type            empty;
    }
}


// ************************************************************************* //
