/*--------------------------------*- C++ -*----------------------------------*\
| =========                 |                                                 |
| \\      /  F ield         | OpenFOAM: The Open Source CFD Toolbox           |
|  \\    /   O peration     | Version:  4.1                                   |
|   \\  /    A nd           | Web:      www.OpenFOAM.org                      |
|    \\/     M anipulation  |                                                 |
\*---------------------------------------------------------------------------*/
FoamFile
{
    version     2.0;
    format      ascii;
    class       volScalarField;
    location    "0.0028";
    object      p;
}
// * * * * * * * * * * * * * * * * * * * * * * * * * * * * * * * * * * * * * //

dimensions      [1 -1 -2 0 0 0 0];

internalField   nonuniform List<scalar> 
1000
(
100000
100000
100000
100000
100000
100000
100000
100000
100000
100000
100000
100000
100000
100000
100000
100000
100000
100000
100000
100000
100000
100000
100000
100000
100000
100000
100000
100000
100000
100000
100000
100000
100000
100000
100000
100000
100000
100000
100000
100000
100000
100000
100000
100000
100000
100000
100000
100000
100000
100000
100000
100000
100000
100000
100000
100000
100000
100000
100000
100000
100000
100000
100000
100000
100000
100000
100000
100000
100000
100000
100000
100000
100000
100000
100000
100000
100000
100000
100000
100000
100000
100000
100000
100000
100000
100000
100000
100000
100000
100000
100000
100000
100000
100000
100000
100000
100000
100000
100000
100000
100000
100000
100000
100000
100000
100000
100000
100000
100000
100000
100000
100000
100000
100000
100000
100000
100000
100000
100000
100000
100000
100000
100000
100000
100000
100000
100000
100000
100000
100000
100000
100000
100000
100000
100000
100000
100000
100000
100000
100000
100000
100000
100000
100000
100000
100000
100000
100000
100000
100000
100000
100000
100000
100000
100000
100000
100000
100000
100000
100000
100000
100000
100000
100000
100000
100000
100000
100000
100000
100000
100000
100000
100000
100000
100000
100000
100000
100000
100000
100000
100000
100000
100000
100000
100000
100000
100000
100000
100000
100000
100000
100000
100000
100000
100000
100000
100000
100000
100000
100000
100000
100000
100000
100000
100000
100000
100000
100000
100000
100000
100000
100000
100000
100000
100000
100000
100000
100000
100000
100000
100000
100000
100000
100000
100000
100000
100000
100000
100000
100000
100000
100000
100000
100000
100000
100000
100000
100000
100000
100000
100000
100000
100000
100000
100000
100000
100000
100000
100000
100000
100000
100000
100000
100000
100000
100000
100000
100000
100000
100000
100000
100000
100000
100000
100000
100000
100000
100000
100000
100000
100000
100000
100000
100000
100000
100000
100000
100000
100000
100000
100000
100000
100000
100000
100000
100000
100000
100000
100000
100000
100000
100000
100000
100000
100000
100000
100000
100000
100000
100000
100000
100000
100000
100000
100000
100000
100000
100000
100000
100000
100000
100000
100000
100000
100000
100000
100000
100000
100000
100000
100000
100000
100000
100000
100000
100000
100000
100000
100000
100000
100000
100000
100000
100000
100000
100000
100000
100000
100000
100000
100000
100000
100000
100000
100000
100000
100000
100000
100000
100000
100000
100000
100000
100000
100000
100000
100000
100000
100000
100000
100000
100000
100000
100000
99999.9
99999.8
99999.7
99999.3
99998.8
99997.7
99995.9
99992.6
99987.1
99977.7
99962.3
99937.5
99898.3
99838.3
99748.6
99618.3
99434.9
99185.4
98859.3
98454
97978.2
97441.6
96851.1
96213
95534.5
94822.2
94082.6
93321.4
92543.5
91752.8
90952.7
90145.9
89334.5
88520.5
87705.1
86889.5
86074.8
85261.8
84451.1
83643.4
82839
82038.5
81242.1
80450.3
79663.2
78881.1
78104.2
77332.8
76566.9
75806.7
75052.4
74304.1
73562
72826
72096.4
71373.1
70656.5
69946.4
69243
68546.5
67856.8
67174.1
66498.5
65830.1
65169
64515.2
63869.1
63230.5
62599.8
61977
61362.2
60755.8
60157.9
59568.6
58988.2
58417
57855.2
57303.2
56761.3
56229.8
55709.2
55199.9
54702.5
54217.3
53745.3
53286.5
52842.6
52413
52000.4
51603.5
51225.2
50865.2
50524.9
50205.8
49908.2
49633.6
49382.8
49156
48955.1
48778.3
48627
48501.1
48396.8
48315.7
48254.6
48209.3
48179.8
48161.7
48152.4
48149.2
48149.3
48149.7
48150.7
48152.3
48155.2
48161.3
48168.3
48175.4
48181
48185.1
48188.2
48190.4
48191.7
48192.4
48192.8
48192.9
48193
48193.1
48193.1
48193.2
48193.6
48193.9
48194.1
48194.2
48194.3
48194.4
48194.5
48194.6
48194.7
48194.7
48194.7
48194.8
48195.1
48195.2
48195.3
48195.4
48195.5
48195.6
48195.8
48195.9
48196
48196.2
48196.4
48196.5
48196.7
48196.8
48196.9
48197
48197
48197.1
48197.1
48197.1
48197.1
48197.1
48197.1
48197.1
48197.1
48197.1
48197.1
48197.1
48197.1
48197.1
48197.1
48197.2
48197.1
48197.1
48197.2
48197.2
48197.1
48197
48196.9
48197.2
48197.2
48197.5
48197.2
48196.8
48199
48206.8
48219.5
48185.3
48180.3
48191.2
48204.7
48204.4
48191
48190.2
48203.3
48207.8
48197.1
48188.2
48196
48208.8
48204.9
48188.5
48187.9
48205
48209.5
48194.5
48185.3
48196.6
48209.3
48203.5
48186.2
48187.6
48206.1
48209.3
48191.4
48183.6
48197.2
48209.4
48200.9
48183.9
48186.6
48205.6
48208
48188.9
48181.2
48195.7
48207.6
48197.4
48180.6
48184
48203
48203.6
48182.1
48176
48192.9
48203.9
48188.8
48171.9
48177
48196.6
48195.7
48170.9
48164.4
48179
48190.4
48174.8
48157
48158.3
48175.1
48173.6
48148.1
48141.2
48150.5
48160
48138.5
48121.6
48120.5
48131.8
48125.5
48094.4
48087.2
48089.2
48096.2
48063.8
48037.7
48030.8
48034.9
48025.2
47965.2
47945.9
47942.5
47951.8
47881.6
47824.8
47808.2
47811.1
47779
47624.7
47567.2
47539.5
47518.9
47331.3
46745.3
45934.1
43855.1
34547
27725.2
25707
25171.2
25040.7
25009.6
25002.3
25000.5
25000.1
25000
25000
25000
25000
25000
25000
25000
25000
25000
25000
25000
25000
25000
25000
25000
25000
25000
25000
25000
25000
25000
25000
25000
25000
25000
25000
25000
25000
25000
25000
25000
25000
25000
25000
25000
25000
25000
25000
25000
25000
25000
25000
25000
25000
25000
25000
25000
25000
25000
25000
25000
25000
25000
25000
25000
25000
25000
25000
25000
25000
25000
25000
25000
25000
25000
25000
25000
25000
25000
25000
25000
25000
25000
25000
25000
25000
25000
25000
25000
25000
25000
25000
25000
25000
25000
25000
25000
25000
25000
25000
25000
25000
25000
25000
25000
25000
25000
25000
25000
25000
25000
25000
25000
25000
25000
25000
25000
25000
25000
25000
25000
25000
25000
25000
25000
25000
25000
25000
25000
25000
25000
25000
25000
25000
25000
25000
25000
25000
25000
25000
25000
25000
25000
25000
25000
25000
25000
25000
25000
25000
25000
25000
25000
25000
25000
25000
25000
25000
25000
25000
25000
25000
25000
25000
25000
25000
25000
25000
25000
25000
25000
25000
25000
25000
25000
25000
25000
25000
25000
25000
25000
25000
25000
25000
25000
25000
25000
25000
25000
25000
25000
25000
25000
25000
25000
25000
25000
25000
25000
25000
25000
25000
25000
25000
25000
25000
25000
25000
25000
25000
25000
25000
25000
25000
25000
25000
25000
25000
25000
25000
25000
25000
25000
25000
25000
25000
25000
25000
25000
25000
25000
25000
25000
25000
25000
25000
25000
25000
25000
25000
25000
25000
25000
25000
25000
25000
25000
25000
25000
25000
25000
25000
25000
25000
25000
25000
25000
25000
25000
25000
25000
25000
25000
25000
25000
25000
25000
25000
25000
25000
25000
25000
25000
25000
25000
25000
25000
25000
25000
25000
25000
25000
25000
25000
25000
25000
25000
25000
25000
25000
25000
25000
25000
25000
25000
25000
25000
25000
25000
25000
25000
25000
25000
25000
25000
25000
25000
25000
25000
25000
25000
25000
25000
25000
25000
25000
25000
25000
25000
25000
25000
25000
25000
25000
25000
25000
25000
25000
25000
25000
25000
25000
25000
25000
25000
25000
25000
25000
25000
25000
25000
25000
25000
25000
25000
25000
25000
25000
25000
25000
)
;

boundaryField
{
    sides
    {
        type            zeroGradient;
    }
    empty
    {
        type            empty;
    }
}


// ************************************************************************* //
