/*--------------------------------*- C++ -*----------------------------------*\
| =========                 |                                                 |
| \\      /  F ield         | OpenFOAM: The Open Source CFD Toolbox           |
|  \\    /   O peration     | Version:  4.1                                   |
|   \\  /    A nd           | Web:      www.OpenFOAM.org                      |
|    \\/     M anipulation  |                                                 |
\*---------------------------------------------------------------------------*/
FoamFile
{
    version     2.0;
    format      ascii;
    class       surfaceScalarField;
    location    "0.0028";
    object      phi;
}
// * * * * * * * * * * * * * * * * * * * * * * * * * * * * * * * * * * * * * //

dimensions      [1 0 -1 0 0 0 0];

internalField   nonuniform List<scalar> 
999
(
-4.81464e-11
-4.69669e-11
-4.99298e-11
-5.05906e-11
-5.0612e-11
-4.96669e-11
-5.16138e-11
-5.59339e-11
-5.43707e-11
-4.78764e-11
-4.9063e-11
-4.87503e-11
-5.24523e-11
-5.53371e-11
-5.51807e-11
-5.37099e-11
-5.40439e-11
-5.68789e-11
-5.0882e-11
-4.7514e-11
-4.70237e-11
-4.67182e-11
-4.40608e-11
-3.84119e-11
-3.83125e-11
-4.14673e-11
-4.97167e-11
-5.5401e-11
-4.93188e-11
-5.3646e-11
-5.43423e-11
-5.36744e-11
-4.99938e-11
-5.64171e-11
-5.50955e-11
-5.533e-11
-5.29425e-11
-4.57803e-11
-3.93925e-11
-3.19247e-11
-3.1072e-11
-3.06883e-11
-2.6013e-11
-2.41016e-11
-2.28795e-11
-2.37108e-11
-2.59988e-11
-2.29576e-11
-2.44e-11
-3.04752e-11
-3.60885e-11
-2.92744e-11
-2.29576e-11
-1.5099e-11
-1.31664e-11
-8.86047e-12
-2.72848e-12
2.77112e-13
6.32383e-13
8.66152e-12
1.76499e-11
2.23039e-11
1.56106e-11
7.96518e-12
3.59535e-12
2.6148e-12
4.00746e-12
6.50147e-12
4.59011e-12
6.61515e-12
1.50706e-11
1.83746e-11
2.00373e-11
2.00941e-11
1.97531e-11
1.96536e-11
2.98641e-11
2.3924e-11
2.87059e-11
3.14202e-11
2.83507e-11
2.22684e-11
2.15294e-11
1.50635e-11
1.36495e-11
5.80513e-12
8.00782e-12
1.058e-11
1.70246e-11
2.03784e-11
2.18705e-11
2.69651e-11
2.44924e-11
1.82609e-11
1.95826e-11
1.85096e-11
2.20624e-11
2.69935e-11
2.53451e-11
3.2685e-11
2.92957e-11
2.94023e-11
2.18137e-11
2.4805e-11
2.63825e-11
2.80096e-11
3.44187e-11
3.30971e-11
3.2685e-11
2.74625e-11
1.87228e-11
1.12763e-11
3.15481e-12
1.81188e-12
2.60059e-12
3.55982e-12
8.22808e-12
1.2804e-11
1.31237e-11
1.34648e-11
2.43219e-11
2.95088e-11
2.58709e-11
2.59917e-11
1.9007e-11
1.26903e-11
1.51843e-11
1.80549e-11
1.86375e-11
1.61151e-11
1.58025e-11
1.48788e-11
1.22071e-11
7.15517e-12
2.37321e-12
-1.27898e-13
5.32907e-13
-5.25802e-13
-6.85674e-12
-8.04334e-12
-5.17275e-12
-6.39488e-14
7.03437e-12
1.06866e-11
1.81473e-11
2.00941e-11
1.61862e-11
1.46372e-11
2.19629e-11
2.31992e-11
2.14513e-11
1.68541e-11
1.66551e-11
1.98384e-11
1.44524e-11
5.14433e-12
1.16813e-11
1.139e-11
1.10703e-11
3.87956e-12
2.20268e-12
7.36122e-12
8.52651e-12
1.0985e-11
1.41895e-11
1.32445e-11
8.47677e-12
6.97042e-12
1.24203e-11
9.23706e-12
3.63087e-12
9.62785e-12
1.62714e-11
1.47509e-11
1.21929e-11
1.17808e-11
1.51417e-11
1.76783e-11
1.99876e-11
1.21219e-11
1.20295e-11
1.96536e-11
1.80691e-11
1.12195e-11
1.29319e-11
1.27045e-11
1.13189e-11
1.60227e-11
1.26406e-11
1.79341e-11
1.93197e-11
2.04636e-11
2.45208e-11
2.68798e-11
2.58353e-11
2.9253e-11
3.0937e-11
2.62403e-11
1.86375e-11
2.05347e-11
2.13376e-11
1.31521e-11
1.88223e-11
2.61196e-11
2.58709e-11
2.143e-11
2.19273e-11
1.64064e-11
1.81544e-11
1.85878e-11
1.32871e-11
1.68399e-11
1.59162e-11
1.81331e-11
1.98952e-11
2.13518e-11
1.88862e-11
1.33085e-11
1.13403e-11
1.94262e-11
1.82894e-11
1.35927e-11
1.62146e-11
1.16103e-11
1.51203e-11
1.18021e-11
1.085e-11
1.36424e-11
7.40386e-12
8.39151e-12
6.65068e-12
8.56915e-12
8.30624e-12
1.81402e-11
1.99734e-11
1.85452e-11
1.52482e-11
1.47864e-11
8.30624e-12
4.44089e-12
6.63647e-12
3.16902e-12
-2.06057e-13
-3.2685e-13
5.05906e-12
5.68434e-12
2.25242e-12
2.92744e-12
5.77671e-12
1.21076e-11
2.332e-11
2.27658e-11
2.14726e-11
1.62856e-11
1.30242e-11
1.01537e-11
1.05658e-11
3.87246e-12
-1.63425e-13
7.56728e-12
1.16813e-11
9.99734e-12
3.28981e-12
2.72848e-12
5.54223e-13
-7.31859e-13
-6.39488e-14
-4.70379e-12
-4.08562e-12
-1.07221e-11
-3.85114e-12
1.4353e-12
-3.2685e-13
1.36424e-12
6.79989e-12
3.04112e-12
7.8515e-12
7.64544e-12
3.0056e-12
8.61888e-12
7.41096e-12
1.20792e-13
2.34479e-12
5.73408e-12
1.14042e-11
1.71099e-11
2.12452e-11
1.89004e-11
1.67972e-11
1.20366e-11
9.61364e-12
1.07931e-11
1.3344e-11
1.53619e-11
1.75078e-11
1.10845e-11
1.33085e-11
2.17e-11
2.52172e-11
2.54374e-11
2.57998e-11
2.24887e-11
2.03997e-11
2.48619e-11
3.20668e-11
2.6354e-11
2.94449e-11
2.49329e-11
2.12452e-11
2.71356e-11
2.6148e-11
2.50324e-11
2.6013e-11
2.33271e-11
2.08757e-11
2.45777e-11
1.96465e-11
2.08971e-11
2.28937e-11
2.01439e-11
1.16316e-11
7.90124e-12
7.65965e-12
-3.05533e-13
-6.807e-12
-7.11253e-12
-7.74492e-12
-9.39337e-12
-2.01084e-12
9.9476e-13
-5.44276e-12
-1.39977e-12
-1.91136e-12
8.81073e-13
4.39826e-12
-3.91509e-12
-1.00684e-11
-1.03455e-11
-1.16103e-11
-8.81784e-12
-6.08935e-12
6.18172e-13
2.01652e-11
6.07088e-11
1.55289e-10
3.80751e-10
9.38066e-10
2.2857e-09
5.49041e-09
1.30125e-08
3.0462e-08
7.04943e-08
1.6131e-07
3.64998e-07
8.16559e-07
1.80585e-06
3.94721e-06
8.52544e-06
1.81912e-05
3.83369e-05
7.97755e-05
0.000163869
0.00033218
0.000664291
0.00131011
0.00254722
0.00488048
0.00921123
0.0171173
0.0313041
0.05631
0.099571
0.172968
0.294968
0.493432
0.809001
1.29877
2.03954
3.12936
4.68556
6.83647
9.70292
13.36
17.7651
22.8002
28.3803
34.4377
40.9007
47.6959
54.7537
62.0112
69.4141
76.9168
84.4819
92.0788
99.6831
107.275
114.839
122.361
129.832
137.242
144.585
151.854
159.046
166.155
173.18
180.115
186.961
193.713
200.372
206.934
213.4
219.769
226.039
232.209
238.281
244.252
250.122
255.893
261.562
267.131
272.598
277.965
283.231
288.396
293.46
298.423
303.285
308.047
312.708
317.268
321.728
326.086
330.344
334.501
338.558
342.512
346.366
350.117
353.766
357.313
360.756
364.095
367.328
370.458
373.476
376.395
379.186
381.898
384.447
386.945
389.26
391.495
393.626
395.539
397.482
399.124
400.739
402.247
403.467
404.73
405.778
406.608
407.466
408.116
408.577
409.053
409.387
409.569
409.731
409.859
409.902
409.891
409.892
409.896
409.9
409.878
409.857
409.833
409.798
409.755
409.723
409.698
409.673
409.658
409.653
409.647
409.636
409.628
409.621
409.612
409.601
409.591
409.588
409.586
409.578
409.571
409.565
409.556
409.544
409.536
409.528
409.515
409.502
409.49
409.489
409.48
409.471
409.459
409.446
409.436
409.427
409.413
409.399
409.388
409.379
409.365
409.347
409.332
409.322
409.311
409.291
409.264
409.24
409.224
409.213
409.195
409.161
409.119
409.083
409.06
409.046
409.028
408.989
408.917
408.85
408.81
408.79
408.765
408.726
408.632
408.456
408.309
408.221
408.191
408.179
408.27
408.57
408.787
408.831
408.425
404.863
389.33
360.323
335.966
317.146
302.636
291.932
284.568
280.063
277.294
275.454
274.108
273.539
273.64
273.58
273.147
272.98
273.242
273.501
273.377
273.017
273.054
273.477
273.543
273.102
272.979
273.33
273.556
273.363
273.009
273.075
273.509
273.547
273.063
272.962
273.364
273.575
273.327
272.979
273.063
273.503
273.539
273.035
272.939
273.365
273.56
273.235
272.921
273.067
273.51
273.475
272.927
272.845
273.338
273.532
273.11
272.811
272.924
273.375
273.368
272.811
272.733
273.081
273.318
272.878
272.609
272.686
273.089
273.027
272.463
272.415
272.644
272.907
272.28
272.082
272.113
272.437
272.313
271.554
271.516
271.66
272.053
271.035
270.588
270.645
271.081
270.866
269.154
268.954
269.246
270.06
267.461
266.367
266.35
267.023
267.341
260.076
252.718
236.495
193.983
59.401
16.708
4.13197
0.986255
0.233418
0.0551113
0.0130001
0.00306546
0.000722714
0.000170374
4.01615e-05
9.46644e-06
2.23116e-06
5.25822e-07
1.23911e-07
2.91974e-08
6.87879e-09
1.62042e-09
3.8159e-10
8.96563e-11
2.1636e-11
6.14087e-12
3.80673e-12
4.94005e-12
4.18865e-12
4.78906e-12
4.8459e-12
5.79803e-12
5.39124e-12
3.87068e-12
2.52243e-12
1.75504e-12
2.19735e-12
6.6791e-13
-1.19194e-12
-1.41931e-12
-7.08766e-13
-1.24878e-12
3.0731e-13
2.62901e-13
-1.68754e-13
-6.43041e-13
-2.68052e-12
-2.91145e-12
-2.99138e-12
-1.26654e-12
-2.52243e-12
-5.48717e-12
-6.79456e-12
-7.65965e-12
-7.94032e-12
-6.18705e-12
-4.94715e-12
-3.65752e-12
-2.67875e-12
-3.44613e-12
-1.36424e-12
-1.803e-12
-2.24176e-12
-2.51354e-12
-2.00018e-12
-4.15668e-13
1.63425e-13
2.11564e-12
4.40004e-12
2.88658e-12
3.0429e-12
9.41469e-13
5.15143e-14
-1.43174e-12
-3.11218e-12
-1.90958e-12
-3.32889e-12
-2.65032e-12
-2.21512e-12
-1.9309e-12
-1.22036e-12
-7.74492e-13
1.69287e-12
4.07496e-12
3.9293e-12
2.14762e-12
2.27374e-13
-7.28306e-14
-1.88294e-13
-1.15463e-13
1.13687e-12
2.28084e-12
6.39488e-13
-1.30207e-12
-1.19549e-12
-2.45493e-12
-2.92566e-12
-3.68594e-12
-3.21876e-12
-1.47615e-12
-2.58282e-12
-4.34852e-12
-6.386e-12
-8.72724e-12
-6.77502e-12
-5.06795e-12
-3.26317e-12
-2.44071e-12
-3.35376e-12
-3.83515e-12
-1.85629e-12
-2.55795e-13
-8.34888e-13
-2.42828e-12
-3.38396e-12
-1.24523e-12
-1.40332e-12
-1.78524e-12
-7.35412e-13
9.04166e-13
-6.73239e-13
-1.91669e-12
-3.65574e-12
-1.73372e-12
-3.21521e-13
3.0731e-13
-1.97176e-13
-1.21325e-12
-1.25588e-12
-1.78346e-12
-2.04459e-12
-2.83329e-12
-3.15659e-12
-8.66862e-13
7.30083e-13
2.66454e-12
3.38751e-12
1.64491e-12
1.87406e-12
4.17444e-13
-3.78364e-13
4.26326e-14
3.25073e-13
-1.65379e-12
-2.22578e-12
-2.57749e-12
-2.53841e-12
-2.2613e-12
-2.84928e-12
-2.56506e-12
-1.93268e-12
-1.63602e-12
-2.53486e-12
-1.94156e-12
-3.29692e-12
-4.61498e-12
-3.07843e-12
-2.9452e-12
-1.55964e-12
8.01137e-13
2.27907e-12
2.01972e-12
1.43885e-13
3.53495e-13
5.8975e-13
9.69891e-13
-1.15463e-13
-1.40332e-13
1.85452e-12
1.57918e-12
-2.16716e-13
1.62892e-12
9.14824e-13
1.00542e-12
1.97709e-12
1.09956e-12
2.52953e-12
4.60432e-12
4.34675e-12
5.67901e-12
4.14246e-12
3.41593e-12
3.49409e-12
1.44951e-12
-8.45546e-13
-1.75859e-12
-1.00009e-12
-9.23706e-13
-6.92779e-14
-7.76268e-13
-2.57216e-12
-3.06422e-12
-4.85834e-12
-7.09832e-12
-9.14824e-12
-8.62954e-12
-8.26894e-12
-7.89946e-12
-5.84599e-12
-3.82272e-12
-1.87228e-12
-6.27054e-13
1.58806e-12
1.13332e-12
1.01608e-12
7.37188e-13
-8.95284e-13
-1.24878e-12
-2.19913e-12
-1.57208e-12
-4.90274e-13
1.61648e-13
6.96332e-13
3.2685e-13
1.51523e-12
1.85629e-12
3.11751e-12
3.10507e-12
3.03757e-12
4.30056e-12
4.22773e-12
6.62936e-12
7.99361e-12
6.13021e-12
6.28653e-12
5.4321e-12
5.06084e-12
5.36993e-12
3.98792e-12
2.12808e-12
1.85096e-12
4.03766e-12
4.22595e-12
2.78888e-12
3.40883e-12
3.93108e-12
4.45866e-12
5.12124e-12
4.66116e-12
2.74269e-12
3.04823e-12
2.14051e-12
9.29035e-13
2.43361e-12
3.93641e-12
2.0961e-12
8.31335e-13
1.12799e-12
1.26121e-12
9.25482e-13
-1.13332e-12
-1.70175e-12
-3.85469e-13
1.45484e-12
2.03748e-12
1.97709e-12
1.56319e-12
1.26121e-12
-1.00542e-12
-9.84102e-13
-6.34159e-13
-1.79767e-12
4.583e-13
8.26006e-13
4.60076e-13
1.9913e-12
1.36602e-12
-7.62057e-13
-7.6561e-13
-7.81597e-14
1.46727e-12
3.39817e-12
3.7641e-12
5.22604e-12
6.62581e-12
7.27063e-12
8.65086e-12
1.04894e-11
1.02087e-11
9.08074e-12
1.04485e-11
9.49818e-12
9.23173e-12
8.88711e-12
7.08766e-12
5.12657e-12
5.70566e-12
5.24558e-12
4.54925e-12
2.85993e-12
1.69997e-12
1.39977e-12
-1.81188e-13
-2.14939e-13
8.61533e-13
2.30926e-12
2.51532e-12
2.43894e-12
2.58105e-12
4.59721e-12
4.45866e-12
2.6894e-12
7.35412e-13
1.0747e-12
2.44604e-12
3.9222e-12
4.20641e-12
5.07683e-12
3.55271e-12
3.30047e-12
4.05009e-12
5.72342e-12
5.17453e-12
5.82467e-12
7.81597e-12
8.31513e-12
9.29745e-12
8.15348e-12
6.3185e-12
5.35927e-12
6.45706e-12
5.11058e-12
6.14442e-12
7.5584e-12
8.49276e-12
8.64731e-12
8.896e-12
1.02656e-11
9.59055e-12
8.3169e-12
9.25837e-12
1.08287e-11
1.1946e-11
1.18074e-11
1.4257e-11
1.41611e-11
1.4726e-11
1.65752e-11
1.59979e-11
1.48077e-11
1.48148e-11
1.67599e-11
1.52323e-11
1.36549e-11
1.42464e-11
1.57971e-11
1.43103e-11
1.5298e-11
1.48326e-11
1.48077e-11
1.4964e-11
1.69109e-11
)
;

boundaryField
{
    sides
    {
        type            calculated;
        value           nonuniform List<scalar> 2(1.68961e-11 4.83948e-11);
    }
    empty
    {
        type            empty;
        value           nonuniform 0();
    }
}


// ************************************************************************* //
