/*--------------------------------*- C++ -*----------------------------------*\
| =========                 |                                                 |
| \\      /  F ield         | OpenFOAM: The Open Source CFD Toolbox           |
|  \\    /   O peration     | Version:  4.1                                   |
|   \\  /    A nd           | Web:      www.OpenFOAM.org                      |
|    \\/     M anipulation  |                                                 |
\*---------------------------------------------------------------------------*/
FoamFile
{
    version     2.0;
    format      ascii;
    class       volScalarField;
    location    "0.0028";
    object      T;
}
// * * * * * * * * * * * * * * * * * * * * * * * * * * * * * * * * * * * * * //

dimensions      [0 0 0 1 0 0 0];

internalField   nonuniform List<scalar> 
1000
(
400
400
400
400
400
400
400
400
400
400
400
400
400
400
400
400
400
400
400
400
400
400
400
400
400
400
400
400
400
400
400
400
400
400
400
400
400
400
400
400
400
400
400
400
400
400
400
400
400
400
400
400
400
400
400
400
400
400
400
400
400
400
400
400
400
400
400
400
400
400
400
400
400
400
400
400
400
400
400
400
400
400
400
400
400
400
400
400
400
400
400
400
400
400
400
400
400
400
400
400
400
400
400
400
400
400
400
400
400
400
400
400
400
400
400
400
400
400
400
400
400
400
400
400
400
400
400
400
400
400
400
400
400
400
400
400
400
400
400
400
400
400
400
400
400
400
400
400
400
400
400
400
400
400
400
400
400
400
400
400
400
400
400
400
400
400
400
400
400
400
400
400
400
400
400
400
400
400
400
400
400
400
400
400
400
400
400
400
400
400
400
400
400
400
400
400
400
400
400
400
400
400
400
400
400
400
400
400
400
400
400
400
400
400
400
400
400
400
400
400
400
400
400
400
400
400
400
400
400
400
400
400
400
400
400
400
400
400
400
400
400
400
400
400
400
400
400
400
400
400
400
400
400
400
400
400
400
400
400
400
400
400
400
400
400
400
400
400
400
400
400
400
400
400
400
400
400
400
400
400
400
400
400
400
400
400
400
400
400
400
400
400
400
400
400
400
400
400
400
400
400
400
400
400
400
400
400
400
400
400
400
400
400
400
400
400
400
400
400
400
400
400
400
400
400
400
400
400
400
400
400
400
400
400
400
400
400
400
400
400
400
400
400
400
400
400
400
400
400
400
400
400
400
400
400
400
400
400
400
400
400
400
400
400
400
400
400
399.999
399.999
399.997
399.995
399.992
399.985
399.974
399.957
399.928
399.884
399.815
399.712
399.562
399.352
399.065
398.689
398.22
397.669
397.044
396.354
395.606
394.805
393.961
393.079
392.167
391.229
390.27
389.293
388.302
387.299
386.287
385.265
384.237
383.203
382.165
381.122
380.076
379.027
377.975
376.922
375.868
374.812
373.756
372.7
371.643
370.587
369.53
368.475
367.421
366.367
365.315
364.264
363.215
362.169
361.124
360.081
359.042
358.005
356.971
355.94
354.913
353.89
352.871
351.857
350.847
349.843
348.844
347.851
346.864
345.885
344.913
343.949
342.993
342.047
341.111
340.186
339.273
338.374
337.483
336.623
335.744
334.954
334.053
333.392
332.422
331.923
330.936
330.462
329.696
329.021
328.61
327.839
327.462
327.026
326.444
326.224
325.871
325.484
325.366
325.164
324.937
324.885
324.83
324.728
324.703
324.713
324.712
324.703
324.704
324.715
324.725
324.732
324.743
324.762
324.784
324.791
324.801
324.816
324.822
324.824
324.831
324.838
324.841
324.843
324.848
324.855
324.858
324.861
324.869
324.875
324.878
324.882
324.89
324.897
324.9
324.906
324.914
324.919
324.926
324.935
324.941
324.947
324.958
324.966
324.972
324.98
324.992
325.003
325.009
325.018
325.033
325.048
325.057
325.063
325.074
325.094
325.115
325.13
325.138
325.146
325.164
325.196
325.227
325.25
325.261
325.269
325.287
325.332
325.388
325.432
325.457
325.469
325.485
325.529
325.651
325.787
325.884
325.931
325.94
325.902
325.724
325.527
325.434
325.492
326.659
333.754
355.479
382.897
408.63
430.981
448.94
462.375
471.843
478.152
482.085
484.367
485.626
486.32
486.688
486.823
486.83
486.841
486.886
486.89
486.834
486.79
486.809
486.844
486.827
486.766
486.76
486.813
486.825
486.77
486.739
486.772
486.811
486.79
486.731
486.73
486.787
486.797
486.739
486.709
486.745
486.784
486.758
486.7
486.701
486.758
486.764
486.697
486.671
486.716
486.753
486.714
486.656
486.663
486.725
486.727
486.648
486.622
486.659
486.697
486.656
486.595
486.594
486.645
486.65
486.57
486.545
486.568
486.599
486.537
486.479
486.475
486.508
486.5
486.403
486.379
486.378
486.404
486.318
486.223
486.2
486.221
486.219
486.014
485.951
485.955
485.983
485.767
485.595
485.57
485.545
485.486
485.047
484.864
484.701
484.675
484.259
482.249
479.827
474.982
443.412
412.447
403.24
400.784
400.186
400.044
400.01
400.002
400.001
400
400
400
400
400
400
400
400
400
400
400
400
400
400
400
400
400
400
400
400
400
400
400
400
400
400
400
400
400
400
400
400
400
400
400
400
400
400
400
400
400
400
400
400
400
400
400
400
400
400
400
400
400
400
400
400
400
400
400
400
400
400
400
400
400
400
400
400
400
400
400
400
400
400
400
400
400
400
400
400
400
400
400
400
400
400
400
400
400
400
400
400
400
400
400
400
400
400
400
400
400
400
400
400
400
400
400
400
400
400
400
400
400
400
400
400
400
400
400
400
400
400
400
400
400
400
400
400
400
400
400
400
400
400
400
400
400
400
400
400
400
400
400
400
400
400
400
400
400
400
400
400
400
400
400
400
400
400
400
400
400
400
400
400
400
400
400
400
400
400
400
400
400
400
400
400
400
400
400
400
400
400
400
400
400
400
400
400
400
400
400
400
400
400
400
400
400
400
400
400
400
400
400
400
400
400
400
400
400
400
400
400
400
400
400
400
400
400
400
400
400
400
400
400
400
400
400
400
400
400
400
400
400
400
400
400
400
400
400
400
400
400
400
400
400
400
400
400
400
400
400
400
400
400
400
400
400
400
400
400
400
400
400
400
400
400
400
400
400
400
400
400
400
400
400
400
400
400
400
400
400
400
400
400
400
400
400
400
400
400
400
400
400
400
400
400
400
400
400
400
400
400
400
400
400
400
400
400
400
400
400
400
400
400
400
400
400
400
400
400
400
400
400
400
400
400
400
400
400
400
400
400
400
400
400
400
400
400
400
400
)
;

boundaryField
{
    sides
    {
        type            zeroGradient;
    }
    empty
    {
        type            empty;
    }
}


// ************************************************************************* //
