/*--------------------------------*- C++ -*----------------------------------*\
| =========                 |                                                 |
| \\      /  F ield         | OpenFOAM: The Open Source CFD Toolbox           |
|  \\    /   O peration     | Version:  4.1                                   |
|   \\  /    A nd           | Web:      www.OpenFOAM.org                      |
|    \\/     M anipulation  |                                                 |
\*---------------------------------------------------------------------------*/
FoamFile
{
    version     2.0;
    format      ascii;
    class       volVectorField;
    location    "0.0028";
    object      U;
}
// * * * * * * * * * * * * * * * * * * * * * * * * * * * * * * * * * * * * * //

dimensions      [0 1 -1 0 0 0 0];

internalField   nonuniform List<vector> 
1000
(
(-1.39147e-11 0 0)
(-1.36542e-11 0 0)
(-1.38502e-11 0 0)
(-1.44529e-11 0 0)
(-1.47626e-11 0 0)
(-1.45051e-11 0 0)
(-1.41241e-11 0 0)
(-1.60821e-11 0 0)
(-1.53153e-11 0 0)
(-1.5586e-11 0 0)
(-1.29311e-11 0 0)
(-1.47177e-11 0 0)
(-1.33041e-11 0 0)
(-1.65603e-11 0 0)
(-1.51582e-11 0 0)
(-1.65478e-11 0 0)
(-1.48215e-11 0 0)
(-1.70977e-11 0 0)
(-1.4352e-11 0 0)
(-1.56738e-11 0 0)
(-1.22321e-11 0 0)
(-1.41055e-11 0 0)
(-1.24918e-11 0 0)
(-1.30957e-11 0 0)
(-9.26668e-12 0 0)
(-1.26959e-11 0 0)
(-1.19021e-11 0 0)
(-1.61972e-11 0 0)
(-1.47406e-11 0 0)
(-1.45182e-11 0 0)
(-1.57916e-11 0 0)
(-1.54916e-11 0 0)
(-1.56752e-11 0 0)
(-1.37689e-11 0 0)
(-1.78523e-11 0 0)
(-1.43273e-11 0 0)
(-1.73657e-11 0 0)
(-1.26822e-11 0 0)
(-1.4131e-11 0 0)
(-8.17726e-12 0 0)
(-1.03033e-11 0 0)
(-7.54858e-12 0 0)
(-1.00087e-11 0 0)
(-5.39635e-12 0 0)
(-8.16822e-12 0 0)
(-5.17639e-12 0 0)
(-7.95434e-12 0 0)
(-6.85657e-12 0 0)
(-6.9733e-12 0 0)
(-6.84407e-12 0 0)
(-1.08076e-11 0 0)
(-9.53856e-12 0 0)
(-7.28524e-12 0 0)
(-6.11797e-12 0 0)
(-2.55753e-12 0 0)
(-4.6771e-12 0 0)
(-9.52742e-13 0 0)
(-3.07628e-13 0 0)
(4.01152e-13 0 0)
(1.33619e-14 0 0)
(4.94497e-12 0 0)
(5.51701e-12 0 0)
(6.52836e-12 0 0)
(2.57601e-12 0 0)
(2.47686e-12 0 0)
(-5.6203e-13 0 0)
(1.83973e-12 0 0)
(8.47529e-13 0 0)
(2.4541e-12 0 0)
(1.41789e-13 0 0)
(4.08326e-12 0 0)
(4.25549e-12 0 0)
(6.73399e-12 0 0)
(4.30714e-12 0 0)
(7.55794e-12 0 0)
(3.2067e-12 0 0)
(8.94736e-12 0 0)
(7.29706e-12 0 0)
(7.22619e-12 0 0)
(8.60623e-12 0 0)
(9.71326e-12 0 0)
(6.665e-12 0 0)
(5.99955e-12 0 0)
(5.76641e-12 0 0)
(3.7878e-12 0 0)
(3.21344e-12 0 0)
(6.44114e-13 0 0)
(3.54599e-12 0 0)
(2.63946e-12 0 0)
(6.67096e-12 0 0)
(5.25271e-12 0 0)
(8.10557e-12 0 0)
(6.62503e-12 0 0)
(7.29391e-12 0 0)
(3.69663e-12 0 0)
(7.03724e-12 0 0)
(3.87206e-12 0 0)
(8.5336e-12 0 0)
(6.59375e-12 0 0)
(8.59419e-12 0 0)
(9.52759e-12 0 0)
(7.77622e-12 0 0)
(8.2745e-12 0 0)
(5.27138e-12 0 0)
(8.42384e-12 0 0)
(7.18868e-12 0 0)
(8.47717e-12 0 0)
(1.06804e-11 0 0)
(9.28466e-12 0 0)
(9.13946e-12 0 0)
(6.43193e-12 0 0)
(4.68673e-12 0 0)
(1.35577e-12 0 0)
(6.57065e-13 0 0)
(5.55637e-13 0 0)
(7.45803e-13 0 0)
(1.4261e-12 0 0)
(2.92352e-12 0 0)
(4.88208e-12 0 0)
(2.76741e-12 0 0)
(5.16137e-12 0 0)
(9.17357e-12 0 0)
(6.96203e-12 0 0)
(8.64991e-12 0 0)
(6.30695e-12 0 0)
(4.34086e-12 0 0)
(3.02468e-12 0 0)
(6.00878e-12 0 0)
(4.47941e-12 0 0)
(5.61228e-12 0 0)
(4.00712e-12 0 0)
(4.91456e-12 0 0)
(3.7563e-12 0 0)
(3.05123e-12 0 0)
(1.10838e-12 0 0)
(2.92279e-13 0 0)
(-3.76721e-13 0 0)
(7.95789e-13 0 0)
(-1.23122e-12 0 0)
(-2.37362e-12 0 0)
(-2.06759e-12 0 0)
(-1.14436e-12 0 0)
(1.14038e-12 0 0)
(2.57081e-12 0 0)
(3.94974e-12 0 0)
(6.04535e-12 0 0)
(5.93464e-12 0 0)
(3.2012e-12 0 0)
(5.39924e-12 0 0)
(6.95581e-12 0 0)
(7.09272e-12 0 0)
(4.36729e-12 0 0)
(5.89857e-12 0 0)
(3.8725e-12 0 0)
(6.89775e-12 0 0)
(1.01332e-12 0 0)
(2.45952e-12 0 0)
(3.68934e-12 0 0)
(3.33581e-12 0 0)
(2.34778e-12 0 0)
(3.27218e-13 0 0)
(6.5854e-13 0 0)
(3.28894e-12 0 0)
(2.22396e-12 0 0)
(3.72836e-12 0 0)
(4.00982e-12 0 0)
(3.4321e-12 0 0)
(1.72827e-12 0 0)
(2.52535e-12 0 0)
(4.15111e-12 0 0)
(1.25582e-12 0 0)
(1.14026e-12 0 0)
(3.94618e-12 0 0)
(5.04038e-12 0 0)
(3.82759e-12 0 0)
(2.99954e-12 0 0)
(3.51442e-12 0 0)
(5.64297e-12 0 0)
(4.41609e-12 0 0)
(6.74695e-12 0 0)
(7.77309e-13 0 0)
(5.19401e-12 0 0)
(6.6254e-12 0 0)
(4.20132e-12 0 0)
(2.71158e-12 0 0)
(4.43249e-12 0 0)
(2.22922e-12 0 0)
(4.9383e-12 0 0)
(3.64397e-12 0 0)
(4.10415e-12 0 0)
(5.97584e-12 0 0)
(4.83915e-12 0 0)
(7.35816e-12 0 0)
(6.52463e-12 0 0)
(8.57151e-12 0 0)
(6.8119e-12 0 0)
(9.93173e-12 0 0)
(7.09374e-12 0 0)
(8.4096e-12 0 0)
(3.10595e-12 0 0)
(8.3044e-12 0 0)
(3.25046e-12 0 0)
(4.91133e-12 0 0)
(6.21318e-12 0 0)
(8.41681e-12 0 0)
(6.28096e-12 0 0)
(6.07624e-12 0 0)
(5.84099e-12 0 0)
(4.41182e-12 0 0)
(6.02753e-12 0 0)
(3.89625e-12 0 0)
(4.31622e-12 0 0)
(4.68565e-12 0 0)
(5.1824e-12 0 0)
(4.79605e-12 0 0)
(7.279e-12 0 0)
(4.59391e-12 0 0)
(6.39142e-12 0 0)
(7.93983e-13 0 0)
(6.39502e-12 0 0)
(3.97149e-12 0 0)
(6.76613e-12 0 0)
(1.66916e-12 0 0)
(6.72229e-12 0 0)
(8.18805e-13 0 0)
(6.99991e-12 0 0)
(3.83217e-13 0 0)
(5.61517e-12 0 0)
(1.87558e-12 0 0)
(2.67257e-12 0 0)
(1.94497e-12 0 0)
(2.06671e-12 0 0)
(2.57578e-12 0 0)
(2.47854e-12 0 0)
(7.68795e-12 0 0)
(3.42138e-12 0 0)
(7.32404e-12 0 0)
(1.91471e-12 0 0)
(6.20595e-12 0 0)
(-1.39657e-12 0 0)
(4.06974e-12 0 0)
(-3.08755e-13 0 0)
(1.93994e-12 0 0)
(-2.0134e-12 0 0)
(1.76624e-12 0 0)
(1.3738e-12 0 0)
(1.3581e-12 0 0)
(4.48064e-13 0 0)
(8.13531e-13 0 0)
(2.1891e-12 0 0)
(5.41976e-12 0 0)
(7.33775e-12 0 0)
(6.12672e-12 0 0)
(5.90688e-12 0 0)
(4.21341e-12 0 0)
(2.46995e-12 0 0)
(3.89658e-12 0 0)
(1.99878e-12 0 0)
(-6.22491e-15 0 0)
(-6.73415e-14 0 0)
(4.36686e-12 0 0)
(2.51587e-12 0 0)
(2.65897e-12 0 0)
(-5.99941e-13 0 0)
(2.10302e-12 0 0)
(-1.70274e-12 0 0)
(1.22281e-12 0 0)
(-1.32514e-12 0 0)
(-8.456e-13 0 0)
(-1.99708e-12 0 0)
(-3.29456e-12 0 0)
(5.00801e-13 0 0)
(6.66087e-13 0 0)
(-1.00082e-12 0 0)
(1.92301e-12 0 0)
(2.38057e-12 0 0)
(-9.33796e-13 0 0)
(5.78095e-12 0 0)
(-1.58406e-12 0 0)
(3.21105e-12 0 0)
(2.16661e-12 0 0)
(1.62626e-12 0 0)
(-1.51705e-12 0 0)
(2.64398e-12 0 0)
(1.09649e-12 0 0)
(4.93996e-12 0 0)
(4.97763e-12 0 0)
(6.96449e-12 0 0)
(4.48643e-12 0 0)
(4.57e-12 0 0)
(2.76983e-12 0 0)
(2.42843e-12 0 0)
(3.95699e-12 0 0)
(4.1582e-12 0 0)
(4.83004e-12 0 0)
(4.43124e-12 0 0)
(2.52251e-12 0 0)
(5.3809e-12 0 0)
(7.27612e-12 0 0)
(6.6438e-12 0 0)
(8.40852e-12 0 0)
(5.92498e-12 0 0)
(6.94657e-12 0 0)
(5.41339e-12 0 0)
(9.23794e-12 0 0)
(8.19142e-12 0 0)
(7.92704e-12 0 0)
(8.23602e-12 0 0)
(6.30114e-12 0 0)
(6.22729e-12 0 0)
(8.7861e-12 0 0)
(6.9637e-12 0 0)
(6.8587e-12 0 0)
(8.46598e-12 0 0)
(4.53527e-12 0 0)
(8.15556e-12 0 0)
(5.28761e-12 0 0)
(5.82052e-12 0 0)
(6.77555e-12 0 0)
(6.03253e-12 0 0)
(5.21208e-12 0 0)
(1.42867e-12 0 0)
(3.30455e-12 0 0)
(1.34283e-12 0 0)
(-1.54048e-12 0 0)
(-2.11697e-12 0 0)
(-2.26062e-12 0 0)
(-2.39802e-12 0 0)
(-2.75651e-12 0 0)
(1.71772e-12 0 0)
(-1.33748e-12 0 0)
(-1.15709e-12 0 0)
(2.13336e-14 0 0)
(-1.24892e-12 0 0)
(2.00771e-12 0 0)
(2.19067e-14 0 0)
(-1.99892e-12 0 0)
(-3.29509e-12 0 0)
(-3.33571e-12 0 0)
(-2.81396e-12 0 0)
(-2.01718e-12 0 0)
(-1.74794e-12 0 0)
(2.2041e-12 0 0)
(1.04054e-11 0 0)
(2.69525e-11 0 0)
(6.83878e-11 0 0)
(1.66368e-10 0 0)
(4.10362e-10 0 0)
(9.92158e-10 0 0)
(2.37178e-09 0 0)
(5.59088e-09 0 0)
(1.30252e-08 0 0)
(2.99992e-08 0 0)
(6.83252e-08 0 0)
(1.53865e-07 0 0)
(3.42556e-07 0 0)
(7.53838e-07 0 0)
(1.63942e-06 0 0)
(3.52264e-06 0 0)
(7.47671e-06 0 0)
(1.56713e-05 0 0)
(3.24291e-05 0 0)
(6.62329e-05 0 0)
(0.000133472 0 0)
(0.000265303 0 0)
(0.000519968 0 0)
(0.00100446 0 0)
(0.00191177 0 0)
(0.00358339 0 0)
(0.0066116 0 0)
(0.0120019 0 0)
(0.0214228 0 0)
(0.0375774 0 0)
(0.0647298 0 0)
(0.109418 0 0)
(0.181356 0 0)
(0.29447 0 0)
(0.467946 0 0)
(0.726993 0 0)
(1.10289 0 0)
(1.63162 0 0)
(2.35004 0 0)
(3.28731 0 0)
(4.45073 0 0)
(5.82322 0 0)
(7.38128 0 0)
(9.1064 0 0)
(10.9816 0 0)
(12.9889 0 0)
(15.1102 0 0)
(17.3284 0 0)
(19.6281 0 0)
(21.9961 0 0)
(24.4213 0 0)
(26.8945 0 0)
(29.4081 0 0)
(31.956 0 0)
(34.5331 0 0)
(37.1355 0 0)
(39.7595 0 0)
(42.4026 0 0)
(45.0621 0 0)
(47.7361 0 0)
(50.4229 0 0)
(53.1209 0 0)
(55.8289 0 0)
(58.5456 0 0)
(61.2699 0 0)
(64.0011 0 0)
(66.7381 0 0)
(69.4803 0 0)
(72.2268 0 0)
(74.977 0 0)
(77.7302 0 0)
(80.4859 0 0)
(83.2434 0 0)
(86.0021 0 0)
(88.7615 0 0)
(91.5209 0 0)
(94.2799 0 0)
(97.0379 0 0)
(99.7942 0 0)
(102.548 0 0)
(105.3 0 0)
(108.048 0 0)
(110.791 0 0)
(113.53 0 0)
(116.264 0 0)
(118.991 0 0)
(121.711 0 0)
(124.423 0 0)
(127.126 0 0)
(129.819 0 0)
(132.501 0 0)
(135.171 0 0)
(137.828 0 0)
(140.47 0 0)
(143.095 0 0)
(145.703 0 0)
(148.291 0 0)
(150.858 0 0)
(153.4 0 0)
(155.917 0 0)
(158.405 0 0)
(160.862 0 0)
(163.284 0 0)
(165.669 0 0)
(168.012 0 0)
(170.31 0 0)
(172.557 0 0)
(174.752 0 0)
(176.884 0 0)
(178.954 0 0)
(180.95 0 0)
(182.869 0 0)
(184.706 0 0)
(186.447 0 0)
(188.094 0 0)
(189.635 0 0)
(191.062 0 0)
(192.373 0 0)
(193.557 0 0)
(194.613 0 0)
(195.54 0 0)
(196.335 0 0)
(197.002 0 0)
(197.544 0 0)
(197.971 0 0)
(198.295 0 0)
(198.524 0 0)
(198.675 0 0)
(198.769 0 0)
(198.814 0 0)
(198.826 0 0)
(198.828 0 0)
(198.83 0 0)
(198.827 0 0)
(198.817 0 0)
(198.795 0 0)
(198.76 0 0)
(198.718 0 0)
(198.679 0 0)
(198.648 0 0)
(198.624 0 0)
(198.608 0 0)
(198.599 0 0)
(198.594 0 0)
(198.59 0 0)
(198.588 0 0)
(198.586 0 0)
(198.584 0 0)
(198.582 0 0)
(198.581 0 0)
(198.58 0 0)
(198.579 0 0)
(198.579 0 0)
(198.578 0 0)
(198.577 0 0)
(198.576 0 0)
(198.575 0 0)
(198.574 0 0)
(198.573 0 0)
(198.572 0 0)
(198.57 0 0)
(198.569 0 0)
(198.568 0 0)
(198.567 0 0)
(198.566 0 0)
(198.565 0 0)
(198.564 0 0)
(198.563 0 0)
(198.562 0 0)
(198.561 0 0)
(198.561 0 0)
(198.56 0 0)
(198.56 0 0)
(198.559 0 0)
(198.559 0 0)
(198.559 0 0)
(198.558 0 0)
(198.558 0 0)
(198.557 0 0)
(198.557 0 0)
(198.556 0 0)
(198.555 0 0)
(198.554 0 0)
(198.553 0 0)
(198.552 0 0)
(198.551 0 0)
(198.55 0 0)
(198.549 0 0)
(198.548 0 0)
(198.548 0 0)
(198.547 0 0)
(198.546 0 0)
(198.545 0 0)
(198.544 0 0)
(198.543 0 0)
(198.543 0 0)
(198.542 0 0)
(198.542 0 0)
(198.542 0 0)
(198.541 0 0)
(198.54 0 0)
(198.54 0 0)
(198.54 0 0)
(198.539 0 0)
(198.543 0 0)
(198.555 0 0)
(198.577 0 0)
(198.627 0 0)
(198.75 0 0)
(198.932 0 0)
(198.904 0 0)
(198.668 0 0)
(198.531 0 0)
(198.492 0 0)
(198.478 0 0)
(198.463 0 0)
(198.47 0 0)
(198.508 0 0)
(198.535 0 0)
(198.522 0 0)
(198.5 0 0)
(198.514 0 0)
(198.544 0 0)
(198.54 0 0)
(198.506 0 0)
(198.497 0 0)
(198.525 0 0)
(198.54 0 0)
(198.51 0 0)
(198.48 0 0)
(198.499 0 0)
(198.532 0 0)
(198.522 0 0)
(198.485 0 0)
(198.481 0 0)
(198.517 0 0)
(198.531 0 0)
(198.498 0 0)
(198.47 0 0)
(198.493 0 0)
(198.525 0 0)
(198.509 0 0)
(198.468 0 0)
(198.467 0 0)
(198.503 0 0)
(198.513 0 0)
(198.475 0 0)
(198.445 0 0)
(198.468 0 0)
(198.499 0 0)
(198.478 0 0)
(198.433 0 0)
(198.431 0 0)
(198.465 0 0)
(198.468 0 0)
(198.422 0 0)
(198.393 0 0)
(198.417 0 0)
(198.441 0 0)
(198.407 0 0)
(198.353 0 0)
(198.351 0 0)
(198.383 0 0)
(198.375 0 0)
(198.316 0 0)
(198.274 0 0)
(198.288 0 0)
(198.304 0 0)
(198.261 0 0)
(198.196 0 0)
(198.174 0 0)
(198.187 0 0)
(198.164 0 0)
(198.091 0 0)
(198.034 0 0)
(198.024 0 0)
(198.013 0 0)
(197.943 0 0)
(197.855 0 0)
(197.808 0 0)
(197.787 0 0)
(197.725 0 0)
(197.612 0 0)
(197.518 0 0)
(197.46 0 0)
(197.397 0 0)
(197.265 0 0)
(197.108 0 0)
(196.994 0 0)
(196.91 0 0)
(196.772 0 0)
(196.544 0 0)
(196.331 0 0)
(196.184 0 0)
(196.019 0 0)
(195.704 0 0)
(195.333 0 0)
(195.044 0 0)
(194.796 0 0)
(194.412 0 0)
(193.848 0 0)
(193.27 0 0)
(192.672 0 0)
(192.007 0 0)
(190.657 0 0)
(187.426 0 0)
(179.935 0 0)
(157.696 0 0)
(98.5445 0 0)
(33.2099 0 0)
(8.62784 0 0)
(2.10114 0 0)
(0.500079 0 0)
(0.118246 0 0)
(0.0279047 0 0)
(0.00658108 0 0)
(0.00155164 0 0)
(0.000365798 0 0)
(8.62302e-05 0 0)
(2.03258e-05 0 0)
(4.79073e-06 0 0)
(1.12907e-06 0 0)
(2.66077e-07 0 0)
(6.2698e-08 0 0)
(1.47728e-08 0 0)
(3.47925e-09 0 0)
(8.20232e-10 0 0)
(1.92545e-10 0 0)
(4.5342e-11 0 0)
(1.19269e-11 0 0)
(4.05927e-12 0 0)
(5.68683e-12 0 0)
(5.45792e-12 0 0)
(4.67764e-12 0 0)
(5.85818e-12 0 0)
(5.65681e-12 0 0)
(7.40648e-12 0 0)
(4.83607e-12 0 0)
(4.41835e-12 0 0)
(1.38595e-12 0 0)
(2.62293e-12 0 0)
(2.30782e-12 0 0)
(-9.9835e-13 0 0)
(-1.53109e-12 0 0)
(-1.5014e-12 0 0)
(-3.06234e-13 0 0)
(-2.23593e-12 0 0)
(2.75907e-12 0 0)
(-2.01556e-12 0 0)
(1.56927e-12 0 0)
(-3.19318e-12 0 0)
(-2.36525e-12 0 0)
(-5.06657e-12 0 0)
(-1.15787e-12 0 0)
(-1.88793e-12 0 0)
(-4.52294e-12 0 0)
(-7.32158e-12 0 0)
(-8.90999e-12 0 0)
(-9.17376e-12 0 0)
(-8.19848e-12 0 0)
(-6.63191e-12 0 0)
(-5.02699e-12 0 0)
(-2.68092e-12 0 0)
(-3.99154e-12 0 0)
(-3.39033e-12 0 0)
(-9.49489e-14 0 0)
(-3.7846e-12 0 0)
(-1.80276e-12 0 0)
(-3.5198e-12 0 0)
(-8.97507e-13 0 0)
(-3.92872e-13 0 0)
(9.14693e-13 0 0)
(4.57404e-12 0 0)
(4.33578e-12 0 0)
(3.35629e-12 0 0)
(2.61563e-12 0 0)
(-1.62433e-13 0 0)
(4.09901e-13 0 0)
(-4.16937e-12 0 0)
(-2.46228e-12 0 0)
(-2.38133e-12 0 0)
(-4.68944e-12 0 0)
(-1.3423e-12 0 0)
(-4.20965e-12 0 0)
(2.02164e-13 0 0)
(-3.27516e-12 0 0)
(1.79407e-12 0 0)
(1.53922e-12 0 0)
(7.85359e-12 0 0)
(1.69595e-12 0 0)
(2.46078e-12 0 0)
(-1.60717e-12 0 0)
(1.2284e-12 0 0)
(-1.44351e-12 0 0)
(1.03012e-12 0 0)
(2.04109e-12 0 0)
(3.0731e-12 0 0)
(-1.95732e-12 0 0)
(-3.93124e-13 0 0)
(-2.84326e-12 0 0)
(-2.47395e-12 0 0)
(-4.83835e-12 0 0)
(-3.97732e-12 0 0)
(-2.69635e-12 0 0)
(-1.13398e-12 0 0)
(-4.21101e-12 0 0)
(-6.34177e-12 0 0)
(-8.37219e-12 0 0)
(-1.08684e-11 0 0)
(-5.37515e-12 0 0)
(-5.83837e-12 0 0)
(-1.38176e-12 0 0)
(-4.74661e-12 0 0)
(-2.74949e-12 0 0)
(-5.57861e-12 0 0)
(9.9498e-13 0 0)
(-1.73312e-12 0 0)
(1.97881e-13 0 0)
(-5.92602e-12 0 0)
(-1.40693e-12 0 0)
(-1.7517e-12 0 0)
(-1.44634e-12 0 0)
(-3.0025e-12 0 0)
(1.68079e-12 0 0)
(1.20874e-13 0 0)
(-1.57313e-12 0 0)
(-3.17271e-12 0 0)
(-4.57065e-12 0 0)
(1.21488e-13 0 0)
(-7.42074e-13 0 0)
(1.54738e-12 0 0)
(-2.09009e-12 0 0)
(-6.08499e-13 0 0)
(-2.32913e-12 0 0)
(-1.60817e-12 0 0)
(-3.39644e-12 0 0)
(-3.33347e-12 0 0)
(-3.15578e-12 0 0)
(8.68186e-13 0 0)
(9.71489e-13 0 0)
(5.20144e-12 0 0)
(1.7811e-12 0 0)
(2.68825e-12 0 0)
(8.71073e-13 0 0)
(4.14348e-13 0 0)
(-1.6269e-12 0 0)
(1.80471e-12 0 0)
(-1.09102e-12 0 0)
(-2.61979e-12 0 0)
(-2.37786e-12 0 0)
(-3.80364e-12 0 0)
(-1.54467e-12 0 0)
(-4.20068e-12 0 0)
(-1.89654e-12 0 0)
(-4.21781e-12 0 0)
(-6.33521e-13 0 0)
(-2.73018e-12 0 0)
(-2.71652e-12 0 0)
(-2.22523e-12 0 0)
(-4.9336e-12 0 0)
(-5.21346e-12 0 0)
(-2.34611e-12 0 0)
(-3.9649e-12 0 0)
(2.49653e-13 0 0)
(1.559e-12 0 0)
(4.03597e-12 0 0)
(1.00483e-13 0 0)
(3.63219e-13 0 0)
(2.40349e-13 0 0)
(1.46384e-12 0 0)
(2.80818e-13 0 0)
(-4.0068e-13 0 0)
(-5.82388e-14 0 0)
(4.63427e-12 0 0)
(-1.47948e-12 0 0)
(1.12591e-12 0 0)
(2.38701e-12 0 0)
(-3.86814e-13 0 0)
(2.82678e-12 0 0)
(1.41046e-12 0 0)
(1.22963e-12 0 0)
(5.02673e-12 0 0)
(4.8745e-12 0 0)
(5.65353e-12 0 0)
(6.55432e-12 0 0)
(3.88606e-12 0 0)
(4.01959e-12 0 0)
(3.5832e-12 0 0)
(-8.62292e-15 0 0)
(-2.15582e-12 0 0)
(-1.30233e-12 0 0)
(-1.58507e-12 0 0)
(-1.50628e-14 0 0)
(-2.27104e-13 0 0)
(-1.88389e-12 0 0)
(-3.34684e-12 0 0)
(-4.24144e-12 0 0)
(-6.87735e-12 0 0)
(-9.81066e-12 0 0)
(-1.05856e-11 0 0)
(-9.68502e-12 0 0)
(-9.62937e-12 0 0)
(-7.64764e-12 0 0)
(-6.35473e-12 0 0)
(-1.84247e-12 0 0)
(-3.11824e-12 0 0)
(2.05938e-12 0 0)
(1.16471e-12 0 0)
(1.44324e-12 0 0)
(1.28512e-12 0 0)
(9.17624e-14 0 0)
(-1.83278e-12 0 0)
(-1.47675e-12 0 0)
(-2.99185e-12 0 0)
(-9.12771e-13 0 0)
(-3.79453e-13 0 0)
(8.48221e-13 0 0)
(6.84018e-13 0 0)
(2.31011e-13 0 0)
(2.65047e-12 0 0)
(2.23289e-12 0 0)
(4.41791e-12 0 0)
(3.23229e-12 0 0)
(3.82361e-12 0 0)
(5.45462e-12 0 0)
(4.70712e-12 0 0)
(1.018e-11 0 0)
(7.82743e-12 0 0)
(6.93093e-12 0 0)
(6.88787e-12 0 0)
(5.9881e-12 0 0)
(6.20225e-12 0 0)
(5.35428e-12 0 0)
(3.6619e-12 0 0)
(1.47132e-12 0 0)
(3.12285e-12 0 0)
(5.59514e-12 0 0)
(4.18414e-12 0 0)
(2.4923e-12 0 0)
(4.99063e-12 0 0)
(4.68831e-12 0 0)
(5.31862e-12 0 0)
(6.56063e-12 0 0)
(3.34162e-12 0 0)
(3.25181e-12 0 0)
(4.15903e-12 0 0)
(4.07793e-13 0 0)
(1.98288e-12 0 0)
(3.46368e-12 0 0)
(4.88273e-12 0 0)
(5.8184e-13 0 0)
(1.09631e-12 0 0)
(1.20748e-12 0 0)
(2.14423e-12 0 0)
(-4.76963e-13 0 0)
(-1.70099e-12 0 0)
(-2.39184e-12 0 0)
(1.37433e-12 0 0)
(2.19673e-12 0 0)
(2.1514e-12 0 0)
(2.93166e-12 0 0)
(3.64048e-13 0 0)
(2.28316e-12 0 0)
(-4.40908e-12 0 0)
(1.92725e-12 0 0)
(-3.07059e-12 0 0)
(-1.13926e-12 0 0)
(2.16468e-12 0 0)
(-2.00509e-13 0 0)
(1.36834e-12 0 0)
(3.07986e-12 0 0)
(-1.3431e-13 0 0)
(-1.46391e-12 0 0)
(-2.79516e-13 0 0)
(2.81698e-14 0 0)
(3.50679e-12 0 0)
(3.96583e-12 0 0)
(4.89267e-12 0 0)
(7.37663e-12 0 0)
(8.24272e-12 0 0)
(8.45668e-12 0 0)
(1.10573e-11 0 0)
(1.29088e-11 0 0)
(1.021e-11 0 0)
(1.15789e-11 0 0)
(1.18641e-11 0 0)
(1.03215e-11 0 0)
(1.08073e-11 0 0)
(9.10928e-12 0 0)
(6.83128e-12 0 0)
(5.95076e-12 0 0)
(6.58898e-12 0 0)
(5.88688e-12 0 0)
(4.27952e-12 0 0)
(2.24864e-12 0 0)
(2.00894e-12 0 0)
(7.71664e-13 0 0)
(-1.01484e-12 0 0)
(3.89612e-13 0 0)
(1.73683e-12 0 0)
(3.10275e-12 0 0)
(3.28129e-12 0 0)
(1.78234e-12 0 0)
(4.67827e-12 0 0)
(5.34312e-12 0 0)
(5.46985e-12 0 0)
(1.38945e-13 0 0)
(1.79582e-12 0 0)
(3.66096e-13 0 0)
(5.67748e-12 0 0)
(2.99751e-12 0 0)
(7.08185e-12 0 0)
(4.35569e-12 0 0)
(3.83604e-12 0 0)
(4.0246e-12 0 0)
(5.49985e-12 0 0)
(6.75883e-12 0 0)
(5.72393e-12 0 0)
(8.34995e-12 0 0)
(9.01781e-12 0 0)
(1.0458e-11 0 0)
(1.07653e-11 0 0)
(8.32221e-12 0 0)
(5.33488e-12 0 0)
(8.04489e-12 0 0)
(5.78553e-12 0 0)
(6.62223e-12 0 0)
(7.3041e-12 0 0)
(1.01384e-11 0 0)
(9.30942e-12 0 0)
(1.05927e-11 0 0)
(1.04644e-11 0 0)
(1.28771e-11 0 0)
(9.02295e-12 0 0)
(1.05205e-11 0 0)
(1.11039e-11 0 0)
(1.3481e-11 0 0)
(1.36126e-11 0 0)
(1.47842e-11 0 0)
(1.63995e-11 0 0)
(1.61342e-11 0 0)
(1.85088e-11 0 0)
(1.94187e-11 0 0)
(1.72738e-11 0 0)
(1.61391e-11 0 0)
(1.91138e-11 0 0)
(1.86615e-11 0 0)
(1.6735e-11 0 0)
(1.50469e-11 0 0)
(1.88513e-11 0 0)
(1.60458e-11 0 0)
(1.7989e-11 0 0)
(1.60673e-11 0 0)
(1.89911e-11 0 0)
(1.51291e-11 0 0)
(1.93123e-11 0 0)
(1.94456e-11 0 0)
)
;

boundaryField
{
    sides
    {
        type            zeroGradient;
    }
    empty
    {
        type            empty;
    }
}


// ************************************************************************* //
