/*--------------------------------*- C++ -*----------------------------------*\
| =========                 |                                                 |
| \\      /  F ield         | OpenFOAM: The Open Source CFD Toolbox           |
|  \\    /   O peration     | Version:  4.1                                   |
|   \\  /    A nd           | Web:      www.OpenFOAM.org                      |
|    \\/     M anipulation  |                                                 |
\*---------------------------------------------------------------------------*/
FoamFile
{
    version     2.0;
    format      ascii;
    class       volScalarField;
    location    "0.0006";
    object      mag(U);
}
// * * * * * * * * * * * * * * * * * * * * * * * * * * * * * * * * * * * * * //

dimensions      [0 1 -1 0 0 0 0];

internalField   nonuniform List<scalar> 
1000
(
4.53873e-13
1.1889e-13
2.85164e-12
7.38594e-13
3.10828e-12
4.15442e-13
7.06888e-13
3.42797e-12
3.04111e-12
2.86519e-12
3.74784e-12
1.16242e-12
1.06842e-12
4.95652e-12
3.90196e-12
4.09458e-12
1.87218e-12
7.36624e-13
1.05138e-12
1.96075e-12
9.3956e-13
1.60944e-12
7.44944e-13
2.06635e-12
3.85648e-12
3.96745e-12
5.96818e-12
5.35725e-12
4.54151e-12
1.7214e-12
1.6745e-12
5.96299e-13
4.99089e-13
1.3298e-12
3.65376e-12
2.0733e-12
3.72782e-12
9.6633e-13
3.93e-12
2.93063e-12
1.16073e-12
2.47335e-12
3.21335e-12
2.48107e-13
1.40983e-12
9.76398e-13
1.42523e-12
7.29872e-13
2.11826e-12
3.83136e-12
4.03443e-12
5.92297e-12
5.28859e-12
4.64032e-12
1.71135e-12
2.11995e-12
8.20696e-13
1.29441e-12
1.11714e-12
1.9892e-12
1.43024e-12
4.75939e-12
2.7213e-12
3.01231e-12
1.1606e-12
2.6147e-13
3.33068e-12
2.47656e-12
1.91187e-13
2.32746e-12
3.26669e-13
1.29074e-13
2.24178e-13
8.62249e-13
1.38978e-12
3.42951e-13
1.14859e-12
3.64889e-12
8.65781e-13
1.20547e-12
1.0315e-12
7.83632e-13
6.07802e-13
8.89152e-13
2.47941e-13
2.52753e-13
1.13049e-12
3.01615e-12
1.77021e-12
2.40804e-12
1.2276e-12
2.24023e-12
6.19383e-13
3.13051e-13
1.95418e-12
5.1061e-13
6.95061e-15
2.69773e-12
2.69774e-12
2.03804e-12
1.35485e-12
1.4133e-12
1.65269e-12
1.88912e-12
3.03752e-12
2.83886e-12
5.03219e-12
4.70062e-12
2.71653e-12
3.1747e-12
8.50686e-13
3.64221e-12
7.11837e-13
2.34102e-12
3.30255e-12
3.833e-12
3.6693e-12
1.90903e-12
4.82343e-13
1.90223e-12
5.54182e-13
1.44154e-12
4.52114e-13
5.1059e-13
4.68838e-13
1.38975e-12
3.47828e-12
1.32983e-12
4.07412e-12
2.9375e-12
3.03562e-12
1.88237e-12
2.5785e-13
6.46582e-13
1.33607e-12
1.74981e-12
1.82031e-12
1.4705e-12
2.30738e-12
1.26628e-12
2.15171e-12
5.89684e-13
1.83365e-12
3.93582e-13
1.71635e-12
5.97721e-13
1.44154e-12
4.52114e-13
5.1059e-13
4.68838e-13
1.38975e-12
3.47828e-12
1.32983e-12
4.07412e-12
2.9375e-12
3.03562e-12
1.88237e-12
2.5785e-13
6.46582e-13
1.33607e-12
1.74981e-12
1.82031e-12
1.4705e-12
2.30738e-12
1.26628e-12
2.15171e-12
5.89684e-13
1.83198e-12
3.75161e-13
1.53214e-12
6.29532e-13
2.37601e-12
1.92759e-12
4.98864e-12
3.61958e-13
5.2195e-12
2.94737e-12
1.82851e-12
5.13982e-13
2.66244e-12
5.63984e-13
8.42029e-13
2.90182e-12
4.37738e-12
1.94118e-12
1.82868e-12
2.46164e-12
6.07896e-13
1.0785e-12
3.61387e-12
2.76789e-12
2.39821e-12
4.60171e-12
5.04093e-13
1.03352e-12
2.47173e-12
2.04616e-12
2.76184e-13
5.97746e-13
2.94811e-13
2.41972e-12
1.8606e-12
2.74765e-13
8.2361e-13
1.80872e-13
3.66457e-13
3.31359e-13
1.00457e-12
7.11534e-13
8.72374e-14
1.5756e-12
6.03753e-14
1.47396e-13
6.83224e-13
1.28256e-12
6.11e-13
1.25087e-12
1.45703e-12
1.49883e-12
2.00247e-12
3.24808e-13
2.945e-13
6.21167e-13
6.41285e-13
3.09883e-13
2.29746e-12
1.62951e-12
1.99781e-14
1.20043e-12
3.63991e-18
1.29252e-12
5.12342e-13
2.97981e-13
3.28085e-15
7.10066e-13
3.31685e-13
3.35034e-15
3.28352e-13
5.6015e-17
4.67214e-18
6.33214e-22
3.11779e-20
3.82102e-19
1.323e-13
3.85733e-14
8.33768e-13
1.00453e-12
4.7055e-13
3.21626e-14
1.19391e-12
4.31192e-14
3.87214e-14
8.693e-13
4.50181e-13
2.1566e-12
1.21711e-16
1.04688e-17
1.89573e-19
1.6774e-15
1.62759e-15
2.9972e-13
4.06715e-13
2.12484e-12
3.22039e-12
4.15481e-12
4.64515e-12
1.31133e-12
1.03162e-12
5.81051e-13
6.68335e-13
2.10487e-12
2.64745e-12
3.12825e-12
4.27879e-12
2.10009e-12
2.73737e-12
9.03874e-13
5.37627e-13
8.18618e-13
1.75469e-12
1.15781e-16
1.00475e-17
1.89581e-19
1.67734e-15
1.62832e-15
4.10248e-13
1.0029e-12
1.41309e-12
9.75763e-17
8.56853e-18
7.53605e-22
3.21803e-23
1.77338e-23
4.23263e-22
4.84987e-18
5.67337e-17
7.46734e-13
7.40152e-13
7.26758e-13
7.09862e-13
4.26908e-13
1.00299e-12
4.84696e-18
8.53915e-13
1.45022e-23
8.53915e-13
1.37406e-18
1.00296e-12
6.25311e-17
1.67415e-15
5.71275e-17
1.00457e-12
1.00293e-12
2.7283e-13
1.45832e-12
1.82428e-13
6.61054e-18
1.73005e-19
5.11131e-18
6.13053e-17
8.79039e-13
4.29941e-22
8.79034e-13
4.94654e-19
7.81907e-13
4.40554e-25
7.81907e-13
1.39801e-19
8.53915e-13
1.18161e-24
8.53915e-13
1.37406e-18
1.00296e-12
6.25311e-17
1.67415e-15
5.71275e-17
1.00457e-12
1.00293e-12
2.7283e-13
1.45832e-12
1.82428e-13
6.61054e-18
1.73006e-19
5.18101e-18
6.20935e-17
9.92911e-13
8.20553e-14
1.01132e-12
9.88442e-14
1.90711e-12
6.02725e-13
1.19724e-12
8.87164e-14
2.00088e-12
5.70905e-13
1.45178e-12
3.3832e-15
1.62912e-12
6.24495e-13
1.003e-12
6.08245e-17
5.95164e-17
9.25957e-13
3.0468e-13
1.19761e-12
2.84657e-13
1.11889e-12
5.91013e-13
1.003e-12
4.77528e-18
8.79034e-13
4.45939e-22
8.79039e-13
6.13053e-17
5.11132e-18
3.34105e-25
5.12841e-18
6.15103e-17
8.89086e-13
9.39779e-29
8.89086e-13
6.15103e-17
5.12843e-18
4.12484e-22
4.26748e-22
5.19655e-18
6.50782e-17
1.00299e-12
2.05859e-13
1.40805e-12
4.08575e-13
1.46836e-12
6.74725e-13
1.003e-12
4.81823e-18
8.79034e-13
4.4596e-22
8.79039e-13
6.13053e-17
5.11134e-18
4.30131e-22
1.79386e-23
1.67975e-27
4.67228e-29
4.66456e-33
9.73525e-35
1.01336e-38
1.69287e-40
1.94233e-40
1.12133e-38
3.2493e-34
1.29084e-32
1.844e-27
4.50806e-26
1.09162e-20
1.3119e-19
4.52197e-14
5.7319e-17
9.59361e-13
1.00458e-12
5.73299e-17
5.21318e-18
4.15213e-22
1.80682e-23
1.64449e-27
4.70462e-29
4.60558e-33
9.81605e-35
1.00642e-38
1.70949e-40
1.80996e-44
2.66539e-49
1.81168e-44
1.75249e-40
1.02815e-38
1.5659e-34
6.77589e-33
6.92264e-28
1.73447e-26
5.48157e-21
6.59762e-20
3.18229e-14
5.7319e-17
9.72758e-13
1.00458e-12
5.75827e-17
1.03835e-13
1.02991e-12
5.91651e-12
2.78342e-11
1.22706e-10
5.18085e-10
2.12395e-09
8.48579e-09
3.30529e-08
1.25434e-07
4.63422e-07
1.66534e-06
5.81516e-06
1.97104e-05
6.47724e-05
0.000206108
0.000634152
0.00188369
0.00539232
0.0148469
0.0392286
0.099207
0.239401
0.549312
1.19385
2.44694
4.69585
8.30591
13.4019
19.9217
27.7394
36.6395
46.3602
56.6554
67.3219
78.2012
89.1695
100.124
110.974
121.626
132
141.967
151.481
160.325
168.49
175.79
182.114
187.461
191.673
194.819
196.983
198.29
198.987
199.248
199.279
199.254
199.236
199.198
199.098
198.892
198.714
198.649
198.816
199.366
199.631
199.255
198.767
198.411
198.2
198.112
198.079
197.98
197.76
197.517
197.316
197.13
196.811
196.321
195.872
195.565
195.223
194.336
192.784
190.341
185.219
170.612
122.514
50.1365
13.3335
3.278
0.775362
0.181024
0.0420124
0.00970308
0.00222931
0.000508979
0.000115345
2.59156e-05
5.76664e-06
1.26962e-06
2.76348e-07
5.94261e-08
1.26194e-08
2.64403e-09
5.45934e-10
1.11307e-10
2.21295e-11
4.20184e-12
7.10079e-13
2.17974e-14
2.49558e-16
1.00256e-12
2.46942e-16
1.4872e-17
3.27931e-13
9.78921e-13
8.35212e-13
4.08303e-13
5.92465e-13
2.39391e-16
2.4562e-13
1.36207e-13
2.10403e-17
2.43333e-13
1.38758e-13
1.00268e-12
1.30325e-17
1.01926e-12
2.41388e-22
1.01926e-12
1.0737e-25
1.01926e-12
6.60771e-21
1.01928e-12
2.28278e-16
2.28371e-16
1.00256e-12
2.70036e-16
2.49936e-16
1.004e-12
1.00375e-12
9.04956e-13
9.53755e-13
4.84829e-14
5.43709e-13
5.43874e-13
9.66402e-13
2.82803e-13
4.17894e-13
2.65575e-13
1.00125e-12
5.77374e-13
3.49144e-13
8.50432e-15
6.20181e-13
9.736e-13
1.18199e-12
2.5789e-13
2.01705e-17
1.32099e-18
9.58464e-23
1.56727e-22
3.76162e-21
1.3643e-17
1.65786e-16
8.11912e-13
6.06859e-13
1.45059e-12
9.11325e-13
1.30184e-12
3.6374e-13
1.03134e-12
6.21133e-13
6.34242e-13
1.62389e-12
2.11452e-12
2.48752e-13
8.23455e-13
4.32022e-13
2.99612e-13
3.34891e-13
1.15777e-17
1.06019e-18
4.85902e-23
2.60108e-24
1.99642e-19
2.30857e-18
1.37333e-13
6.50598e-14
9.2387e-13
2.22882e-13
3.71794e-14
1.45044e-12
2.00014e-12
4.15351e-13
1.14165e-12
4.45026e-13
8.3522e-14
1.84643e-13
1.64527e-13
3.22892e-13
2.35509e-12
2.55283e-13
1.31586e-12
6.16459e-13
1.22405e-12
2.99633e-13
1.75287e-12
1.75408e-14
2.00691e-12
9.85676e-13
2.19026e-12
5.45342e-14
2.26542e-12
5.34175e-13
1.65105e-12
1.09179e-12
1.93007e-13
1.82935e-12
2.09217e-13
1.14547e-13
8.18266e-13
8.43566e-13
1.92394e-13
9.23585e-13
6.50532e-14
1.08442e-12
3.58709e-13
1.21902e-12
7.00149e-13
1.46501e-12
5.92836e-13
1.73467e-12
1.06696e-12
1.34063e-12
3.58903e-15
1.83899e-12
7.00838e-13
2.02763e-12
5.77709e-13
1.42498e-12
1.09178e-12
1.93006e-13
1.82935e-12
2.09217e-13
1.14547e-13
8.18266e-13
8.43568e-13
1.92368e-13
4.63125e-13
9.56812e-14
1.18148e-12
2.6178e-13
8.8491e-14
6.46291e-13
2.17696e-12
1.37154e-12
5.17686e-14
3.3092e-14
1.0751e-16
6.47453e-13
1.97517e-16
2.92859e-13
8.15799e-17
6.80997e-18
1.87827e-21
6.91629e-20
7.59499e-19
1.672e-15
1.672e-15
3.70433e-18
3.39899e-17
5.32456e-13
2.57589e-13
7.296e-13
2.01066e-17
1.00421e-12
2.33693e-16
1.66673e-16
1.15835e-12
5.18389e-13
9.0848e-13
3.48466e-15
5.4717e-13
2.19426e-15
1.30719e-12
2.49162e-16
3.04593e-13
7.43586e-17
6.20669e-18
1.53446e-21
6.91773e-20
7.59499e-19
1.672e-15
1.672e-15
3.70433e-18
3.39899e-17
5.32456e-13
2.57589e-13
7.296e-13
2.12377e-17
1.16328e-12
4.36991e-18
1.16324e-12
1.57713e-13
5.1694e-13
9.06785e-13
3.48299e-15
5.50517e-13
2.19502e-15
1.30719e-12
2.49162e-16
3.04593e-13
7.43586e-17
6.20669e-18
1.53446e-21
6.91773e-20
7.59499e-19
1.672e-15
1.672e-15
7.61516e-19
7.505e-20
1.87842e-17
2.43132e-16
6.72893e-13
6.54084e-13
1.32678e-12
2.06387e-15
2.76403e-13
9.87596e-13
6.22194e-13
1.36533e-12
9.93464e-13
7.26047e-13
1.40068e-12
2.60221e-12
8.93031e-13
3.56391e-13
5.34251e-17
2.59287e-17
2.63631e-16
1.00103e-12
4.8841e-13
1.48927e-12
4.16225e-16
3.60299e-17
6.86352e-21
1.87836e-17
2.43132e-16
6.72893e-13
6.54084e-13
1.32678e-12
2.06387e-15
2.76403e-13
9.87596e-13
6.22194e-13
1.36533e-12
9.93464e-13
7.26047e-13
1.40068e-12
2.60221e-12
8.93031e-13
3.56391e-13
5.34248e-17
2.59229e-17
2.48333e-16
1.00085e-12
1.99094e-16
2.25806e-12
2.5019e-16
1.25719e-12
2.61426e-13
1.5267e-13
7.85123e-13
7.34727e-13
3.66872e-13
5.43601e-13
1.35824e-12
9.15861e-13
1.6401e-12
3.91285e-13
1.53956e-13
7.17624e-14
7.22444e-14
3.25016e-13
1.10396e-13
4.50723e-16
1.65856e-12
1.57152e-13
4.95488e-13
1.00417e-12
1.00058e-12
2.19978e-16
2.25806e-12
2.5019e-16
1.25719e-12
2.61426e-13
1.5267e-13
7.85123e-13
7.34727e-13
3.66872e-13
5.43601e-13
1.35824e-12
9.15861e-13
1.6401e-12
3.91285e-13
1.53956e-13
7.17624e-14
7.22444e-14
3.25016e-13
1.10396e-13
4.50723e-16
1.65856e-12
1.57152e-13
4.95488e-13
1.00417e-12
1.00058e-12
2.19978e-16
2.25806e-12
2.5019e-16
1.25719e-12
2.61426e-13
1.5267e-13
7.85123e-13
7.34727e-13
3.66872e-13
5.43601e-13
1.35824e-12
9.15861e-13
1.6401e-12
3.91285e-13
1.53956e-13
7.17624e-14
7.22444e-14
3.25016e-13
1.10396e-13
4.50723e-16
1.65856e-12
1.57152e-13
4.95488e-13
1.00417e-12
1.00058e-12
2.19978e-16
2.25806e-12
2.5019e-16
1.25719e-12
2.61409e-13
1.2023e-13
1.32605e-12
3.34208e-12
2.65126e-12
1.62493e-12
2.55171e-12
2.10664e-12
3.31737e-12
2.29763e-12
1.10457e-12
4.09227e-13
1.89208e-12
2.38038e-12
4.08668e-13
9.80107e-13
2.82156e-12
1.95674e-12
2.14425e-12
1.05844e-12
7.13612e-13
9.87035e-14
4.11397e-12
2.31682e-12
8.97564e-13
1.48346e-12
2.44519e-13
2.45935e-13
1.04137e-16
8.69551e-18
4.13363e-21
1.38633e-22
6.92756e-20
8.28742e-19
1.67276e-15
1.61567e-21
1.67276e-15
8.27588e-19
6.91596e-20
1.68039e-22
4.56638e-21
4.89084e-18
4.20446e-17
9.56535e-13
3.88026e-13
6.0045e-14
1.41935e-12
1.14354e-12
1.15798e-12
2.03828e-16
2.20783e-13
5.01604e-15
2.15796e-13
1.03446e-16
8.62798e-18
4.13176e-21
1.38554e-22
6.92756e-20
8.28742e-19
1.67276e-15
1.61567e-21
1.67276e-15
8.27588e-19
6.91596e-20
1.68039e-22
4.56638e-21
4.89084e-18
4.20446e-17
9.56535e-13
3.88026e-13
6.0045e-14
1.41935e-12
1.14354e-12
1.15798e-12
2.03828e-16
2.20783e-13
5.01604e-15
2.15796e-13
1.03446e-16
8.62798e-18
4.13176e-21
1.38554e-22
6.92756e-20
8.28742e-19
1.67276e-15
1.61567e-21
1.67276e-15
8.27588e-19
6.91596e-20
1.68039e-22
4.56638e-21
4.89084e-18
4.20446e-17
9.56535e-13
3.88026e-13
6.0045e-14
1.41935e-12
1.14354e-12
1.15798e-12
3.36938e-14
2.81015e-13
1.10525e-12
1.58554e-12
5.77823e-13
2.70401e-14
2.11102e-14
1.95353e-12
1.10049e-12
)
;

boundaryField
{
    sides
    {
        type            calculated;
        value           nonuniform List<scalar> 2(1.10049e-12 4.53873e-13);
    }
    empty
    {
        type            empty;
    }
}


// ************************************************************************* //
