/*--------------------------------*- C++ -*----------------------------------*\
| =========                 |                                                 |
| \\      /  F ield         | OpenFOAM: The Open Source CFD Toolbox           |
|  \\    /   O peration     | Version:  4.1                                   |
|   \\  /    A nd           | Web:      www.OpenFOAM.org                      |
|    \\/     M anipulation  |                                                 |
\*---------------------------------------------------------------------------*/
FoamFile
{
    version     2.0;
    format      ascii;
    class       surfaceScalarField;
    location    "0.0006";
    object      phi;
}
// * * * * * * * * * * * * * * * * * * * * * * * * * * * * * * * * * * * * * //

dimensions      [1 0 -1 0 0 0 0];

internalField   nonuniform List<scalar> 
999
(
-8.2423e-13
-5.84066e-12
-5.92593e-12
-6.04672e-12
-6.97753e-12
9.45022e-13
-5.92593e-12
-1.03455e-11
-1.04663e-11
-1.08002e-11
-9.47864e-12
-3.26139e-12
-1.15108e-11
-1.42748e-11
-1.50138e-11
-1.00115e-11
-4.67537e-12
8.02913e-13
-1.9611e-12
-4.93117e-12
-4.07852e-12
-4.81037e-12
2.90612e-12
9.47864e-12
1.42677e-11
1.63567e-11
2.09681e-11
1.6513e-11
1.14184e-11
6.4162e-12
3.24007e-12
2.45848e-12
-1.52056e-12
-9.65628e-12
-8.96705e-12
-9.54969e-12
-9.08784e-12
-7.87281e-12
-1.2669e-11
-6.52989e-12
-6.87805e-12
-9.37916e-12
-6.18883e-12
-2.49401e-12
-4.95959e-12
-3.43903e-12
-4.54037e-12
3.02691e-12
9.59233e-12
1.40759e-11
1.6847e-11
2.03073e-11
1.7053e-11
1.15961e-11
6.85674e-12
4.33431e-12
-4.76064e-13
-5.59197e-12
-4.66116e-12
-5.3646e-12
-9.72022e-12
-1.47935e-11
-8.85336e-12
-8.02913e-12
-2.41585e-12
-6.46594e-12
-9.18021e-12
-5.32907e-12
-3.9222e-12
-5.11591e-12
-6.39488e-13
-8.45546e-13
1.41398e-12
3.43903e-12
2.24532e-12
1.15108e-12
-3.73035e-12
-9.74865e-12
1.22924e-12
9.23706e-14
-2.30926e-12
-3.50298e-12
1.08002e-12
1.36424e-12
1.33582e-12
-1.84741e-12
3.6593e-12
7.83729e-12
7.75202e-12
6.03251e-12
5.3717e-12
3.55982e-12
-2.14584e-12
2.65743e-12
3.0056e-12
-9.59233e-13
-5.14433e-12
-9.97602e-12
-7.61702e-12
-5.74829e-12
-4.5759e-12
4.90274e-13
6.44462e-12
7.86571e-12
9.92628e-12
1.5028e-11
1.53335e-11
1.37135e-11
1.12763e-11
6.06803e-12
8.57625e-12
7.8586e-12
4.52616e-12
1.139e-11
1.09779e-11
1.36069e-11
1.06795e-11
3.5314e-12
4.82459e-12
3.85114e-12
-1.55609e-12
-1.59872e-12
1.59872e-12
1.62714e-12
-1.49925e-12
-7.95097e-12
-9.32232e-12
-8.41283e-12
-1.33085e-11
-9.48575e-12
-8.83205e-12
-3.20455e-12
1.84741e-12
3.63087e-12
5.04485e-12
5.67724e-12
6.45173e-12
6.87805e-12
5.28644e-12
7.06279e-12
3.87956e-12
5.27223e-12
3.15481e-12
4.34852e-12
3.6593e-12
-1.51346e-12
-1.59872e-12
1.59872e-12
1.62714e-12
-1.49925e-12
-7.95097e-12
-9.32232e-12
-8.41283e-12
-1.33085e-11
-9.48575e-12
-8.83205e-12
-3.20455e-12
1.84741e-12
3.63087e-12
5.04485e-12
5.67724e-12
6.45173e-12
6.87805e-12
5.28644e-12
7.06279e-12
3.87956e-12
5.27223e-12
3.1406e-12
3.99325e-12
3.1477e-12
-2.39453e-12
-8.81073e-12
-1.08145e-11
-9.80549e-12
-9.32232e-12
-1.4893e-11
-1.89004e-12
2.4869e-12
3.87246e-12
3.35376e-12
6.82121e-13
-4.05009e-12
-1.15961e-11
-1.27969e-11
-5.28644e-12
-8.75389e-12
-2.67164e-12
2.6148e-12
7.81597e-12
1.17808e-11
8.19966e-12
1.328e-11
8.49099e-12
2.28084e-12
6.53699e-12
8.44125e-12
2.79954e-12
6.46594e-13
1.5774e-12
4.36273e-12
7.88702e-12
3.63798e-12
2.14584e-12
1.39977e-12
-1.91847e-13
-1.27898e-13
-1.08002e-12
-4.68958e-13
1.30029e-12
2.82085e-12
3.01981e-12
-2.06057e-13
-1.30029e-12
-3.55271e-12
-1.0516e-12
-1.0445e-12
-5.08038e-12
-5.32907e-12
-5.93303e-12
-2.55795e-12
9.37916e-13
-6.53699e-13
-7.10543e-15
2.14584e-12
3.80851e-12
7.45359e-12
2.74269e-12
1.97531e-12
1.85452e-12
-2.01084e-12
-1.46372e-12
1.35714e-12
4.12115e-13
1.39266e-12
7.17648e-13
-7.10543e-13
7.10543e-13
5.18696e-13
0
0
0
0
-1.91847e-13
-3.83693e-13
-1.34293e-12
2.70006e-13
8.81073e-13
-6.39488e-13
1.72662e-12
2.67164e-12
9.23706e-14
1.79057e-12
2.33058e-12
-3.18323e-12
-3.59535e-12
0
0
0
7.10543e-15
5.40012e-13
1.37135e-12
-3.58824e-12
-8.13571e-12
-1.4019e-11
-1.51132e-11
-9.54259e-12
-4.56168e-12
-2.84928e-12
2.62901e-13
4.50484e-12
7.63123e-12
9.88365e-12
1.39195e-11
1.03242e-11
8.44125e-12
3.21876e-12
-6.60805e-13
2.45137e-12
-1.74083e-12
-2.91323e-12
0
0
0
7.10543e-15
6.18172e-13
2.64322e-12
-8.10019e-13
-2.33769e-12
0
0
0
0
0
0
0
-1.22213e-12
-2.84217e-14
2.77822e-12
2.28795e-12
5.96856e-13
-2.58638e-12
-1.65556e-12
1.38556e-12
1.60583e-12
-1.60583e-12
-1.38556e-12
1.65556e-12
1.88294e-12
-7.10543e-15
1.42109e-14
-1.6982e-12
-7.10543e-15
2.39453e-12
-2.25242e-12
-2.08189e-12
2.91323e-13
0
0
0
1.44951e-12
1.62714e-12
-1.62714e-12
-1.44951e-12
1.45661e-12
1.26477e-12
-1.26477e-12
-1.45661e-12
1.38556e-12
1.60583e-12
-1.60583e-12
-1.38556e-12
1.65556e-12
1.88294e-12
-7.10543e-15
1.42109e-14
-1.6982e-12
-7.10543e-15
2.39453e-12
-2.25242e-12
-2.08189e-12
2.91323e-13
0
0
0
1.61293e-12
1.71951e-12
-2.07478e-12
-1.59872e-12
3.31113e-12
2.55795e-12
-3.46745e-12
-2.06768e-12
3.07665e-12
2.87059e-12
-3.93641e-12
-2.38032e-12
2.75691e-12
1.89715e-12
-3.0056e-12
-1.65556e-12
0
1.49214e-12
1.9682e-12
2.34479e-12
3.2756e-12
-2.01794e-12
-2.57927e-12
-2.85638e-12
-1.65556e-12
1.42819e-12
1.62714e-12
-1.62714e-12
-1.42819e-12
0
0
0
0
1.44951e-12
1.46372e-12
-1.52056e-12
-1.46372e-12
0
0
0
0
0
1.63425e-12
2.20268e-12
-2.15294e-12
-1.5774e-12
2.97717e-12
1.5703e-12
-3.08376e-12
-1.65556e-12
1.42819e-12
1.62714e-12
-1.62714e-12
-1.42819e-12
0
0
0
0
0
0
0
0
0
0
0
0
0
0
0
0
0
-6.39488e-14
-7.81597e-14
-1.60583e-12
9.23706e-14
1.64846e-12
0
0
0
0
0
0
0
0
0
0
0
0
0
0
0
0
0
0
0
0
-4.26326e-14
-7.10543e-14
-1.62714e-12
4.9738e-14
1.69109e-12
1.27898e-13
1.62004e-12
1.02531e-11
5.07114e-11
2.26819e-10
9.70793e-10
4.01748e-09
1.61943e-08
6.36449e-08
2.43778e-07
9.09375e-07
3.30093e-06
1.16483e-05
3.99191e-05
0.00013271
0.000427466
0.00133227
0.00401178
0.0116524
0.0325853
0.0875482
0.225447
0.554877
1.30101
2.89494
6.08764
12.0462
22.2569
37.6154
57.3065
80.6852
106.75
134.297
162.237
189.728
216.186
241.237
264.649
286.287
306.078
323.971
340.008
354.033
366.489
376.681
385.421
392.873
397.769
402.218
405.43
406.84
407.724
408.756
409.034
408.798
408.549
408.484
408.433
407.983
407.417
407.367
408.913
409.71
409.441
398.351
356.972
320.778
297.574
283.951
276.895
274.125
273.116
272.19
271.592
272.109
272.813
273.628
271.608
270.87
270.873
271.484
272.29
267.182
264.422
259.718
251.077
224.182
83.5936
25.7667
6.46497
1.53948
0.360712
0.0839416
0.0194447
0.00448318
0.00102797
0.000234147
5.29168e-05
1.18523e-05
2.62828e-06
5.76509e-07
1.24989e-07
2.67675e-08
5.65957e-09
1.18032e-09
2.42649e-10
4.91536e-11
9.64562e-12
1.82077e-12
2.43361e-13
5.32907e-15
4.08562e-13
4.583e-13
-1.77636e-15
-1.19016e-13
2.41585e-13
8.34888e-14
-5.93303e-13
1.03029e-13
2.23821e-13
1.33227e-13
1.40332e-13
7.4607e-14
-1.26121e-13
-1.45661e-13
-5.20473e-13
-4.08562e-13
4.17444e-13
4.92051e-13
-4.88498e-13
-4.17444e-13
4.13891e-13
4.92051e-13
-4.88498e-13
-4.13891e-13
0
4.13891e-13
4.51195e-13
-1.77636e-15
4.70735e-13
-5.32907e-15
-3.01981e-14
-3.73035e-14
-3.49942e-13
2.23821e-13
5.32907e-15
1.59872e-13
3.28626e-13
-3.44613e-13
-2.59348e-13
2.84217e-13
2.07834e-13
-4.33431e-13
-1.59872e-13
-2.82441e-13
2.00728e-13
-1.27898e-13
-5.93303e-13
-9.59233e-14
0
0
-1.77636e-15
1.77636e-15
0
1.77636e-15
-3.76588e-13
-5.73763e-13
-9.73444e-13
-9.18376e-13
1.24345e-13
8.22453e-13
-3.30402e-13
-7.17648e-13
3.55271e-15
1.04272e-12
1.75682e-12
6.44818e-13
-3.14415e-13
-2.8777e-13
9.41469e-14
2.84217e-14
1.3145e-13
-1.77636e-15
1.77636e-15
0
0
-1.77636e-15
-4.61853e-14
-4.61853e-14
-3.32179e-13
-5.48894e-13
-9.41469e-14
-6.73239e-13
-1.55609e-12
-6.30607e-13
-3.28626e-13
-7.78044e-13
-1.7053e-13
-1.81188e-13
-1.06581e-13
4.44089e-14
1.25766e-12
1.06049e-12
7.38964e-13
7.97584e-13
7.86926e-13
6.16396e-13
-5.41789e-13
-8.84626e-13
-7.83373e-13
-1.40687e-12
5.8975e-13
8.95284e-13
9.78773e-13
1.33937e-12
-5.64881e-13
-1.13864e-12
-5.29354e-13
-9.62785e-13
-6.71463e-13
1.65201e-13
-3.51719e-13
2.30926e-14
2.41585e-13
-4.24549e-13
-4.44089e-13
5.86198e-13
5.45342e-13
7.69163e-13
7.8515e-13
9.53904e-13
4.06786e-13
-1.09068e-12
-1.13687e-12
-1.08535e-12
-5.40012e-13
7.03437e-13
1.21858e-12
1.10489e-12
1.24523e-12
-4.28102e-13
-1.04805e-12
-5.29354e-13
-9.62785e-13
-6.71463e-13
1.65201e-13
-3.51719e-13
2.30926e-14
2.41585e-13
-2.41585e-13
-2.84217e-13
5.1692e-13
5.64881e-13
2.22045e-13
-3.21521e-13
5.8975e-13
1.74794e-12
5.54223e-13
7.10543e-15
-1.06581e-14
2.66454e-13
3.14415e-13
-1.49214e-13
-1.15463e-13
0
0
0
-1.77636e-15
3.55271e-15
0
-5.32907e-15
1.77636e-15
-2.11386e-13
-1.42109e-13
-1.75859e-13
-3.09086e-13
4.10338e-13
4.68958e-13
-5.32907e-15
-4.74287e-13
-3.01981e-13
-1.45661e-13
-4.3876e-13
2.64677e-13
2.22045e-13
5.32907e-13
6.05738e-13
-1.5099e-13
-1.19016e-13
0
0
0
-1.77636e-15
3.55271e-15
0
-5.32907e-15
1.77636e-15
-2.11386e-13
-1.42109e-13
-1.75859e-13
-3.09086e-13
4.60076e-13
5.93303e-13
-6.00409e-13
-5.1692e-13
1.36779e-13
-1.45661e-13
-4.36984e-13
2.64677e-13
2.27374e-13
5.32907e-13
6.05738e-13
-1.5099e-13
-1.19016e-13
0
0
0
-1.77636e-15
3.55271e-15
0
-5.32907e-15
1.77636e-15
0
0
-2.73559e-13
-6.07514e-13
2.96652e-13
6.18172e-13
-1.3145e-13
-5.11591e-13
-1.81188e-13
-2.85993e-13
-1.95399e-13
1.36779e-13
-8.9706e-13
4.67182e-13
1.62359e-12
2.06057e-13
-1.42109e-13
0
-3.55271e-15
-3.92575e-13
-6.98108e-13
4.1922e-13
6.73239e-13
-3.55271e-15
1.77636e-15
0
0
-2.73559e-13
-6.07514e-13
2.96652e-13
6.18172e-13
-1.3145e-13
-5.11591e-13
-1.81188e-13
-2.85993e-13
-1.95399e-13
1.36779e-13
-8.9706e-13
4.67182e-13
1.62359e-12
2.06057e-13
-1.42109e-13
0
-3.55271e-15
-3.92575e-13
-4.7784e-13
9.80549e-13
1.0445e-12
-5.9508e-13
-6.27054e-13
-1.74083e-13
-4.31655e-13
-6.32383e-13
-4.56524e-13
6.39488e-14
7.30083e-13
1.16174e-12
-3.96128e-13
-5.04485e-13
2.62901e-13
8.70415e-14
5.68434e-14
1.77636e-13
2.06057e-13
4.44089e-14
-7.53175e-13
-6.37712e-13
2.71783e-13
6.16396e-13
5.32907e-15
-4.7784e-13
9.80549e-13
1.0445e-12
-5.9508e-13
-6.27054e-13
-1.74083e-13
-4.31655e-13
-6.32383e-13
-4.56524e-13
6.39488e-14
7.30083e-13
1.16174e-12
-3.96128e-13
-5.04485e-13
2.62901e-13
8.70415e-14
5.68434e-14
1.77636e-13
2.06057e-13
4.44089e-14
-7.53175e-13
-6.37712e-13
2.71783e-13
6.16396e-13
5.32907e-15
-4.7784e-13
9.80549e-13
1.0445e-12
-5.9508e-13
-6.27054e-13
-1.74083e-13
-4.31655e-13
-6.32383e-13
-4.56524e-13
6.39488e-14
7.30083e-13
1.16174e-12
-3.96128e-13
-5.04485e-13
2.62901e-13
8.70415e-14
5.68434e-14
1.77636e-13
2.06057e-13
4.44089e-14
-7.53175e-13
-6.37712e-13
2.71783e-13
6.16396e-13
5.32907e-15
-4.7784e-13
9.80549e-13
1.0445e-12
-5.9508e-13
-6.27054e-13
-6.03961e-14
-4.92051e-13
-1.9007e-12
-2.88658e-12
-1.68754e-12
-1.81188e-12
-1.92202e-12
-2.54197e-12
-2.30571e-12
-5.41789e-13
3.05533e-13
-1.0143e-12
1.95399e-13
9.04166e-13
2.36255e-13
1.60938e-12
2.12452e-12
1.84741e-12
1.30029e-12
9.05942e-13
2.46914e-13
2.06057e-12
2.96652e-12
1.19904e-12
1.16529e-12
8.17124e-13
-2.66454e-14
-8.88178e-14
-3.55271e-15
1.77636e-15
0
0
0
0
1.77636e-15
-3.55271e-15
3.55271e-15
-5.32907e-15
1.77636e-15
0
0
-1.77636e-15
-3.74811e-13
-6.60805e-13
-1.52767e-13
5.15143e-13
1.23457e-12
-1.95399e-14
-4.67182e-13
8.34888e-14
1.06581e-13
-1.15463e-13
-7.63833e-14
-3.55271e-15
1.77636e-15
0
0
0
0
1.77636e-15
-3.55271e-15
3.55271e-15
-5.32907e-15
1.77636e-15
0
0
-1.77636e-15
-3.74811e-13
-6.60805e-13
-1.52767e-13
5.15143e-13
1.23457e-12
-1.95399e-14
-4.67182e-13
8.34888e-14
1.06581e-13
-1.15463e-13
-7.63833e-14
-3.55271e-15
1.77636e-15
0
0
0
0
1.77636e-15
-3.55271e-15
3.55271e-15
-5.32907e-15
1.77636e-15
0
0
-1.77636e-15
-3.74811e-13
-6.60805e-13
-1.52767e-13
5.15143e-13
1.23457e-12
-1.95399e-14
-4.79616e-13
1.03029e-13
-3.10862e-13
-1.3145e-12
-8.40217e-13
-2.85993e-13
-2.66454e-14
7.56728e-13
1.47615e-12
)
;

boundaryField
{
    sides
    {
        type            calculated;
        value           nonuniform List<scalar> 2(9.41737e-13 1.5776e-12);
    }
    empty
    {
        type            empty;
        value           nonuniform 0();
    }
}


// ************************************************************************* //
