/*--------------------------------*- C++ -*----------------------------------*\
| =========                 |                                                 |
| \\      /  F ield         | OpenFOAM: The Open Source CFD Toolbox           |
|  \\    /   O peration     | Version:  4.1                                   |
|   \\  /    A nd           | Web:      www.OpenFOAM.org                      |
|    \\/     M anipulation  |                                                 |
\*---------------------------------------------------------------------------*/
FoamFile
{
    version     2.0;
    format      ascii;
    class       volScalarField;
    location    "0.0008";
    object      mag(U);
}
// * * * * * * * * * * * * * * * * * * * * * * * * * * * * * * * * * * * * * //

dimensions      [0 1 -1 0 0 0 0];

internalField   nonuniform List<scalar> 
1000
(
4.05764e-12
2.08498e-12
2.67561e-12
2.1153e-12
3.13675e-12
3.44486e-12
4.02894e-12
4.72567e-12
4.22177e-12
4.06093e-12
3.11137e-12
3.80672e-12
5.2216e-12
5.32303e-12
1.27459e-12
1.3314e-12
1.21746e-12
2.79802e-12
1.23799e-12
2.10287e-12
2.87672e-12
4.21989e-13
4.49133e-13
1.86371e-12
4.36877e-12
2.40846e-12
1.92222e-12
1.12213e-12
8.79108e-13
2.69595e-12
1.50202e-12
1.69613e-12
2.66934e-12
1.17465e-13
2.81117e-12
1.79477e-13
6.39699e-13
7.80067e-13
3.11091e-12
1.91742e-12
5.92415e-13
2.58045e-12
1.92052e-12
1.75031e-12
2.32229e-12
2.58364e-12
2.87025e-12
2.64957e-12
7.1987e-13
8.17046e-13
1.4204e-13
1.39692e-12
3.20001e-12
3.0965e-12
2.36132e-12
1.33311e-12
1.63953e-12
7.7683e-13
1.46546e-12
4.381e-14
3.14603e-13
4.6909e-14
1.33118e-12
2.94262e-13
9.49435e-13
1.84473e-13
5.8452e-13
9.68206e-13
1.68818e-13
4.33999e-13
2.96559e-12
1.8582e-13
1.22044e-13
2.63429e-12
1.36442e-12
2.68883e-12
2.03267e-12
3.42145e-12
1.21738e-12
8.10798e-13
3.06785e-12
1.4184e-12
4.59658e-12
2.55393e-12
2.35927e-12
4.05558e-13
8.03788e-13
1.78681e-12
9.59807e-13
4.52457e-12
1.12562e-12
1.43624e-12
2.07455e-12
1.45666e-12
1.56216e-12
1.96121e-12
1.23556e-12
3.06616e-13
2.72467e-12
3.20858e-12
3.45296e-12
2.12348e-12
5.72899e-13
4.80335e-13
1.42641e-12
3.5447e-12
1.93431e-12
6.34691e-13
2.78691e-12
6.23573e-12
7.16414e-12
8.41634e-12
4.07979e-12
5.52267e-12
5.18647e-12
4.65194e-12
2.50038e-12
2.21887e-12
3.57202e-12
2.21531e-12
2.51679e-12
4.47582e-13
7.13473e-13
2.76512e-13
6.14589e-13
1.22392e-13
1.58248e-12
1.18523e-12
1.02446e-12
1.36843e-12
3.22814e-12
1.61938e-12
6.5128e-13
2.39642e-13
4.63592e-13
6.38192e-13
1.57381e-13
7.387e-13
9.04036e-13
4.77547e-13
2.15332e-12
1.07469e-12
5.97555e-13
1.4454e-12
3.70064e-12
1.11846e-12
1.4866e-12
1.34648e-12
2.16219e-13
3.43307e-13
8.89013e-14
1.57578e-12
1.18523e-12
1.02446e-12
1.36843e-12
3.22814e-12
1.61938e-12
6.5128e-13
2.39642e-13
4.63592e-13
6.38192e-13
1.52357e-13
7.80563e-13
6.02601e-13
2.53797e-14
9.61471e-13
3.42254e-12
9.91551e-13
1.30702e-13
2.09504e-13
1.09875e-12
1.51255e-12
2.67086e-12
1.9905e-13
9.12209e-13
1.35939e-12
4.15294e-12
2.77691e-12
4.81601e-12
5.09953e-12
3.95328e-12
1.30322e-12
9.84684e-14
1.35488e-12
2.27706e-12
8.05508e-13
3.11216e-13
9.72731e-13
2.29904e-12
7.66895e-13
2.91568e-13
1.3566e-12
2.46802e-12
4.37345e-13
3.29425e-12
3.02095e-12
2.62385e-12
2.03656e-12
4.42912e-12
1.28642e-12
4.70036e-12
1.44545e-12
3.97562e-12
1.38788e-12
2.27542e-13
4.92683e-12
1.1352e-12
1.23787e-12
1.2038e-12
2.54793e-13
2.14481e-12
1.05356e-13
4.20387e-13
2.08488e-12
3.31545e-12
2.93766e-12
3.8314e-12
1.29621e-12
8.15532e-13
1.83814e-13
1.93732e-12
1.66599e-12
6.42774e-13
1.00957e-12
1.89036e-13
1.44338e-12
2.29924e-12
2.15541e-12
1.5303e-12
1.11799e-17
6.15846e-14
8.47182e-13
6.68957e-14
2.27617e-13
1.49868e-12
5.0742e-13
1.67943e-15
5.07483e-13
3.21093e-17
2.6832e-18
9.79847e-21
2.23463e-18
1.34245e-14
1.13033e-12
3.60118e-13
1.64374e-13
1.42135e-12
1.27934e-12
2.421e-12
1.98586e-12
1.23375e-12
2.93338e-13
7.62033e-13
1.37581e-13
1.3719e-12
7.39246e-14
2.41301e-12
1.02997e-12
2.58899e-12
3.89331e-12
4.50624e-13
9.36402e-13
3.15294e-12
1.96452e-12
1.80523e-12
1.01615e-12
1.7267e-12
1.18903e-13
9.84582e-13
1.76485e-12
9.57888e-13
3.18494e-12
2.18707e-12
2.71292e-12
2.89741e-12
5.51195e-12
2.33501e-12
2.52203e-12
1.69266e-12
2.02576e-12
1.91927e-16
1.66838e-17
2.52421e-19
1.67896e-15
1.60231e-15
7.04973e-13
1.08984e-12
1.79472e-12
1.60598e-16
1.41359e-17
1.66111e-21
7.10705e-23
3.89941e-23
9.22171e-22
7.43579e-18
8.44901e-17
7.483e-13
9.81215e-13
7.28431e-13
8.77274e-13
5.0057e-13
1.33783e-12
1.94621e-17
8.53831e-13
2.90755e-23
8.53831e-13
1.44857e-17
1.33778e-12
1.11114e-16
1.674e-15
1.01595e-16
1.33934e-12
1.3377e-12
6.21234e-14
1.6072e-12
3.31378e-13
3.26133e-19
1.20435e-18
8.14866e-18
9.7714e-17
8.78957e-13
9.46331e-22
8.7895e-13
1.14207e-17
4.46922e-13
6.3811e-24
4.46922e-13
1.006e-17
8.53833e-13
7.55855e-23
8.53831e-13
1.44857e-17
1.33778e-12
1.11114e-16
1.674e-15
1.01595e-16
1.33934e-12
1.3377e-12
6.21234e-14
1.6072e-12
3.31378e-13
3.26135e-19
1.20439e-18
9.19265e-18
1.09893e-16
1.32772e-12
8.70518e-14
6.05046e-14
2.00855e-13
2.09446e-12
1.17531e-13
2.0732e-12
2.22394e-12
3.05054e-13
1.88715e-12
1.15034e-12
1.41164e-12
8.86235e-13
6.31177e-13
1.33785e-12
1.06834e-16
6.20662e-14
1.57565e-12
1.53053e-12
4.57316e-13
1.41837e-12
7.68563e-14
9.19401e-13
1.42825e-12
1.28442e-12
6.39464e-13
9.16621e-18
1.13014e-12
1.01642e-16
8.476e-18
3.67601e-24
8.20042e-18
9.83352e-17
8.89003e-13
1.9471e-28
8.89003e-13
9.83352e-17
8.20046e-18
9.40424e-22
1.00613e-21
9.24316e-18
1.15158e-16
1.33782e-12
7.70168e-13
9.67489e-13
7.3634e-14
1.13329e-12
7.04789e-13
8.58905e-13
1.6413e-13
2.81112e-13
3.16762e-18
9.00727e-13
9.78999e-17
8.16417e-18
9.80016e-22
4.08859e-23
5.23031e-27
1.45556e-28
1.95207e-32
4.0768e-34
5.66408e-38
9.78233e-40
7.80705e-37
3.74779e-35
9.78688e-31
3.5229e-29
9.85952e-25
2.36587e-23
7.48162e-19
8.97672e-18
3.80128e-13
1.01851e-16
9.59227e-13
1.33935e-12
1.02599e-16
9.26477e-18
9.83947e-22
4.27871e-23
5.18575e-27
1.48396e-28
1.93313e-32
4.1226e-34
5.63003e-38
3.65054e-36
1.14192e-33
1.19311e-28
1.34154e-26
3.09342e-21
1.2653e-19
5.35895e-14
6.43063e-13
3.02608e-12
1.3871e-11
5.59246e-11
2.14826e-10
7.97238e-10
2.8911e-09
1.02448e-08
3.55073e-08
1.20321e-07
3.98436e-07
1.28844e-06
4.06578e-06
1.25098e-05
3.74979e-05
0.000109398
0.000310318
0.00085491
0.0022846
0.00591398
0.014807
0.0357946
0.0833844
0.186767
0.401227
0.824448
1.6149
3.00172
5.25298
8.54098
12.862
18.1407
24.2791
31.134
38.5475
46.3753
54.4994
62.8278
71.2902
79.8309
88.4043
96.9702
105.491
113.93
122.249
130.406
138.36
146.051
153.449
160.45
167.052
173.121
178.628
183.536
187.736
191.238
194.033
196.123
197.577
198.469
198.929
199.135
199.185
199.173
199.147
199.101
199.027
198.908
198.772
198.687
198.652
198.625
198.598
198.572
198.571
198.649
198.868
199.26
199.349
198.979
198.633
198.415
198.329
198.31
198.275
198.186
198.092
198.04
198.004
197.918
197.781
197.659
197.563
197.432
197.182
196.892
196.647
196.425
196.119
195.646
195.095
194.499
193.854
192.682
189.713
182.838
163.891
108.948
39.5356
10.2859
2.49999
0.591136
0.138657
0.0324316
0.00757328
0.00176564
0.000410891
9.54032e-05
2.20884e-05
5.09625e-06
1.17091e-06
2.67714e-07
6.08671e-08
1.37529e-08
3.08592e-09
6.87934e-10
1.52068e-10
3.32667e-11
7.21731e-12
1.00016e-12
4.74827e-14
5.33556e-13
3.73026e-17
4.26469e-13
1.95977e-13
1.33716e-12
2.72535e-17
1.10925e-12
4.97105e-13
1.06561e-12
1.00396e-13
1.81907e-12
2.92855e-13
2.5205e-13
3.27416e-16
4.12512e-16
1.33706e-12
4.78154e-16
4.22202e-16
1.02859e-12
1.02823e-12
5.69454e-13
9.53282e-13
9.19338e-14
5.86977e-13
2.95641e-13
6.31045e-13
6.17482e-13
8.2948e-14
6.94652e-14
6.65883e-13
7.69634e-13
5.41557e-13
1.06318e-12
1.62734e-13
5.96221e-13
1.91813e-12
2.71463e-13
8.87134e-17
5.07437e-18
1.36896e-21
4.79176e-22
1.05285e-20
2.72123e-17
3.43475e-16
1.14669e-12
1.61165e-12
1.23454e-12
2.51344e-12
8.22973e-14
1.58254e-12
2.48505e-13
1.41535e-12
2.08097e-12
2.51246e-12
9.17756e-13
1.9176e-13
3.15203e-13
8.69158e-13
1.57498e-13
1.26085e-12
1.03732e-13
4.90653e-13
7.5612e-18
6.4036e-19
6.7477e-18
7.96589e-17
8.07009e-13
3.82317e-13
7.51224e-13
9.32865e-13
7.074e-13
2.73122e-12
2.08177e-12
9.0031e-13
1.89631e-12
2.02598e-13
7.85003e-13
3.72076e-14
6.84411e-13
3.90243e-13
3.01071e-12
2.97738e-13
1.22348e-12
1.01838e-12
6.86311e-13
1.50135e-12
8.28107e-14
7.51141e-13
1.88087e-12
9.38463e-13
9.70196e-13
3.83587e-13
3.5932e-13
2.04475e-13
4.92596e-13
9.32507e-13
7.91045e-13
2.33423e-12
2.3417e-12
1.96908e-13
9.19779e-13
1.45091e-12
7.55059e-14
1.38701e-12
1.92278e-13
1.59479e-12
2.30317e-13
1.16338e-12
3.77188e-13
1.15973e-12
9.34209e-13
1.10985e-12
1.3702e-12
2.01012e-12
3.8635e-13
2.50151e-12
1.69896e-12
7.43904e-13
2.8447e-13
8.12431e-13
8.65511e-13
1.15106e-12
2.39118e-12
2.335e-12
1.41647e-13
9.61644e-13
1.29184e-12
1.42649e-13
1.28025e-13
8.27085e-13
1.08072e-12
5.71653e-13
6.36001e-13
1.09396e-12
1.14021e-12
7.71963e-13
1.56086e-13
1.96904e-13
1.94414e-12
2.25393e-13
1.08587e-13
1.0077e-13
1.21537e-16
1.01481e-17
4.76517e-21
9.22422e-20
1.0131e-18
1.67112e-15
1.67309e-15
3.74719e-17
3.04877e-13
8.8216e-13
5.77052e-13
7.29263e-13
9.92088e-17
1.33871e-12
4.09487e-16
3.62983e-16
1.49273e-12
5.17832e-13
9.08079e-13
3.53607e-15
5.46981e-13
2.5285e-15
1.64159e-12
4.43073e-16
3.04463e-13
1.24784e-16
1.04256e-17
4.26442e-21
9.22632e-20
1.0131e-18
1.67112e-15
1.67278e-15
2.98222e-17
1.85941e-13
8.92854e-13
4.3497e-13
8.51131e-13
5.16575e-14
2.26824e-13
2.27886e-13
2.16403e-12
2.43327e-13
5.13231e-13
9.06426e-13
3.53826e-15
5.50327e-13
2.52981e-15
1.64159e-12
4.43073e-16
3.04463e-13
1.24784e-16
1.04256e-17
4.26442e-21
9.22632e-20
1.01311e-18
1.67112e-15
1.67112e-15
1.01545e-18
1.06331e-19
2.81174e-17
3.63552e-16
6.72741e-13
6.5374e-13
1.37474e-12
4.80539e-14
6.58219e-13
1.27351e-12
9.56399e-13
1.69941e-12
1.32761e-12
3.27392e-13
2.07283e-12
2.47222e-12
1.29656e-12
2.1164e-14
7.33106e-17
1.84256e-13
4.55931e-13
1.13633e-12
4.77521e-14
1.73477e-12
6.84937e-16
8.88095e-14
1.99819e-18
2.79507e-17
3.63552e-16
6.72741e-13
6.5374e-13
1.37474e-12
4.80539e-14
6.58219e-13
1.27351e-12
9.56399e-13
1.69941e-12
1.32761e-12
3.27392e-13
2.07283e-12
2.47222e-12
1.29656e-12
2.11637e-14
6.79495e-17
4.47153e-17
4.41922e-16
1.33532e-12
3.50623e-16
1.85035e-12
9.42097e-14
6.08826e-13
5.96414e-13
4.87703e-13
7.85035e-13
7.34756e-13
1.51724e-12
1.77562e-12
9.8628e-13
2.73522e-13
5.14051e-13
3.91743e-12
9.22796e-13
2.25975e-13
6.89394e-14
7.26746e-13
1.32614e-14
4.01586e-15
1.22086e-12
1.56924e-13
4.95492e-13
1.33856e-12
1.33486e-12
3.87748e-16
1.85035e-12
9.42097e-14
6.08826e-13
5.96414e-13
4.87703e-13
7.85035e-13
7.34756e-13
1.51724e-12
1.77562e-12
9.8628e-13
2.73522e-13
5.14051e-13
3.91743e-12
9.22796e-13
2.25975e-13
6.89394e-14
7.26746e-13
1.32614e-14
4.01586e-15
1.22086e-12
1.56924e-13
4.95492e-13
1.33856e-12
1.33486e-12
3.87748e-16
1.85035e-12
9.42097e-14
6.08826e-13
5.96414e-13
4.87703e-13
7.85035e-13
7.34756e-13
1.51724e-12
1.77562e-12
9.8628e-13
2.73522e-13
5.14051e-13
3.91743e-12
9.22796e-13
2.25975e-13
6.89394e-14
7.26746e-13
1.32614e-14
4.01585e-15
1.22086e-12
1.66972e-13
5.23959e-13
1.2431e-12
2.15712e-12
1.90222e-12
1.81179e-12
2.12258e-12
1.28937e-13
3.23546e-12
4.05429e-12
1.7102e-12
2.62807e-12
1.82867e-12
8.58675e-13
2.66182e-12
5.05669e-13
8.20311e-14
3.09957e-12
1.5718e-12
6.02345e-13
3.60873e-13
1.39243e-13
2.58493e-14
4.07107e-12
1.86495e-12
1.37439e-12
3.54415e-12
2.72821e-12
3.34401e-12
1.1894e-12
3.94274e-12
4.81703e-13
3.03024e-13
1.2621e-12
1.50368e-12
2.30971e-12
1.4234e-12
5.8108e-13
1.15519e-13
7.53565e-14
2.16054e-19
1.13365e-18
1.67213e-15
1.61463e-21
1.67213e-15
1.1044e-18
9.23863e-20
9.8163e-23
3.26322e-21
1.19896e-17
1.61741e-16
1.39319e-12
2.33042e-13
6.08958e-14
1.34368e-12
1.24845e-12
1.49213e-12
3.63939e-16
2.20682e-13
5.01342e-15
2.15717e-13
1.39227e-16
1.16239e-17
7.48469e-21
2.52589e-22
9.25024e-20
1.10556e-18
1.67213e-15
1.61462e-21
1.67213e-15
1.1044e-18
9.23863e-20
9.8163e-23
3.26322e-21
1.19896e-17
1.61741e-16
1.39319e-12
2.33042e-13
6.08958e-14
1.34368e-12
1.24845e-12
1.49213e-12
3.63939e-16
2.20682e-13
5.01342e-15
2.15717e-13
1.39227e-16
1.16239e-17
7.48469e-21
2.52589e-22
9.25024e-20
1.10556e-18
1.67213e-15
1.61462e-21
1.67213e-15
1.1044e-18
9.23863e-20
9.8163e-23
3.26322e-21
1.19896e-17
1.61741e-16
1.39319e-12
2.33041e-13
2.74063e-14
1.35206e-12
1.0692e-12
2.17383e-12
2.59073e-12
2.23458e-13
9.69182e-13
8.6389e-15
3.04904e-13
1.53034e-12
2.82284e-12
3.80199e-12
4.62374e-12
)
;

boundaryField
{
    sides
    {
        type            calculated;
        value           nonuniform List<scalar> 2(4.62374e-12 4.05764e-12);
    }
    empty
    {
        type            empty;
    }
}


// ************************************************************************* //
