/*--------------------------------*- C++ -*----------------------------------*\
| =========                 |                                                 |
| \\      /  F ield         | OpenFOAM: The Open Source CFD Toolbox           |
|  \\    /   O peration     | Version:  4.1                                   |
|   \\  /    A nd           | Web:      www.OpenFOAM.org                      |
|    \\/     M anipulation  |                                                 |
\*---------------------------------------------------------------------------*/
FoamFile
{
    version     2.0;
    format      ascii;
    class       surfaceScalarField;
    location    "0.0008";
    object      phi;
}
// * * * * * * * * * * * * * * * * * * * * * * * * * * * * * * * * * * * * * //

dimensions      [1 0 -1 0 0 0 0];

internalField   nonuniform List<scalar> 
999
(
-1.15463e-11
-7.38964e-12
-8.94573e-12
-9.50706e-12
-1.25908e-11
-1.15037e-11
-1.62004e-11
-1.49214e-11
-1.48361e-11
-1.31948e-11
-1.12408e-11
-1.65059e-11
-1.81686e-11
-1.07718e-11
-5.29354e-12
-3.75167e-12
-7.87281e-12
-6.27409e-12
-6.34515e-12
1.21503e-12
6.2883e-12
1.25766e-12
4.51195e-12
1.00542e-11
1.24842e-11
7.16938e-12
5.73408e-12
2.93454e-12
6.97753e-12
6.70752e-12
-2.4869e-13
-7.80886e-12
-5.74119e-12
-4.25615e-12
-5.64171e-12
-1.32871e-12
1.56319e-13
-3.85114e-12
-8.97415e-12
-2.0961e-12
-3.58824e-12
-8.33467e-12
-5.96856e-12
-7.47491e-12
6.18172e-13
8.58336e-12
1.08287e-11
5.25802e-12
2.41585e-12
1.60583e-12
-3.22586e-12
-7.67386e-12
-1.11839e-11
-8.96705e-12
-6.89226e-12
3.83693e-13
1.97531e-12
-4.63274e-12
-2.28084e-12
9.166e-13
3.05533e-13
2.43716e-12
1.59162e-12
1.19371e-12
1.68399e-12
5.04485e-13
2.359e-12
2.52243e-12
7.38964e-13
6.17462e-12
6.06803e-12
8.52651e-14
-4.32721e-12
-2.63611e-12
-1.87583e-12
-1.74794e-12
1.15321e-11
6.31672e-12
1.42109e-12
-7.63123e-12
-8.68283e-12
-9.50706e-12
-1.3415e-11
-7.94387e-12
-4.17799e-12
-2.67875e-12
2.11031e-12
4.31299e-12
1.08997e-11
8.19966e-12
5.47118e-12
-1.37845e-12
-5.97566e-12
2.27374e-13
5.96856e-12
6.50857e-12
1.99663e-12
5.92593e-12
1.04023e-11
1.26548e-11
8.83915e-12
2.99138e-12
-1.84741e-12
1.25766e-12
-3.04823e-12
-1.02602e-11
-2.38742e-12
6.34515e-12
1.49001e-11
2.41087e-11
2.6823e-11
2.197e-11
1.75078e-11
1.76144e-11
1.7387e-11
1.29887e-11
7.94387e-12
1.05018e-11
1.00329e-11
7.09832e-12
5.8975e-12
-2.77112e-13
-2.31637e-12
-1.14397e-12
-1.15818e-12
-2.25953e-12
-9.73444e-13
4.40536e-13
-4.50484e-12
-7.54596e-12
-9.19442e-12
-1.35003e-12
1.22213e-12
1.62004e-12
-4.76064e-13
-7.24754e-13
1.37845e-12
3.16902e-12
2.23821e-12
4.09983e-12
2.45137e-12
-1.10134e-12
2.97717e-12
1.02744e-11
7.56728e-12
-7.74492e-13
-4.44089e-12
-3.2685e-12
-6.18172e-13
-7.4607e-13
-2.27374e-12
-9.59233e-13
4.40536e-13
-4.50484e-12
-7.54596e-12
-9.19442e-12
-1.35003e-12
1.22213e-12
1.62004e-12
-4.76064e-13
-7.31859e-13
1.51346e-12
2.69296e-12
9.166e-13
-1.51346e-12
-8.19966e-12
-6.94911e-12
-1.93268e-12
-2.84217e-14
-2.74269e-12
6.60805e-13
7.7236e-12
4.52616e-12
1.36424e-12
-8.45546e-13
-9.47864e-12
-1.29816e-11
-1.28182e-11
-1.75575e-11
-1.46798e-11
-1.00684e-11
-2.25242e-12
2.06057e-12
6.06803e-12
4.70379e-12
1.33582e-12
8.66862e-13
-2.57216e-12
-2.40163e-12
7.60281e-13
1.62004e-12
7.16938e-12
4.54747e-12
7.21201e-12
1.0246e-11
1.004e-11
8.46256e-12
1.05373e-11
9.77707e-12
1.13118e-11
9.99023e-12
9.71312e-12
1.00613e-11
1.59872e-12
9.22995e-12
9.32232e-12
4.78906e-12
4.24905e-12
2.32347e-12
4.03588e-12
3.85114e-12
-1.13687e-12
-3.89377e-12
-1.01608e-11
-9.96181e-12
-1.30029e-11
-9.40048e-12
-2.84928e-12
-2.26663e-12
2.69296e-12
6.77858e-12
1.7053e-12
7.03437e-13
1.33582e-12
2.30926e-12
6.86384e-12
7.04858e-12
7.24754e-12
2.28795e-12
-6.39488e-14
1.26477e-12
1.54188e-12
-2.4869e-13
2.0961e-12
1.69109e-12
-8.17124e-13
8.02913e-13
9.59233e-13
0
0
0
-2.13163e-14
-1.85452e-12
-2.81375e-12
-2.70006e-13
2.55795e-12
3.69482e-13
-7.1978e-12
-5.40012e-13
5.43565e-12
2.37321e-12
2.17426e-12
7.95808e-13
2.81375e-12
1.76925e-12
-4.64695e-12
-5.1088e-12
-7.58149e-12
-9.8197e-12
-8.6402e-12
-2.04636e-12
-7.70228e-12
-8.03624e-12
-7.73781e-12
-3.97904e-12
-5.50671e-12
-3.13349e-12
1.99663e-12
-1.94689e-12
-4.0572e-12
4.00036e-12
9.24416e-12
8.55493e-12
9.73444e-12
1.45377e-11
1.35074e-11
8.30624e-12
7.61702e-12
-6.25278e-13
-3.45324e-12
0
0
0
7.10543e-15
1.13687e-12
3.28981e-12
-1.33582e-12
-2.97717e-12
0
0
0
0
0
0
0
-1.22213e-12
3.69482e-13
3.11218e-12
2.6148e-12
7.53175e-13
-3.37508e-12
-2.20979e-12
1.38556e-12
1.60583e-12
-1.60583e-12
-1.38556e-12
2.20979e-12
2.47269e-12
-7.10543e-15
1.42109e-14
-2.25953e-12
-7.10543e-15
2.39453e-12
-3.09797e-12
-2.089e-12
5.40012e-13
0
0
0
1.44951e-12
1.62714e-12
-1.62714e-12
-1.44951e-12
8.59757e-13
7.03437e-13
-7.03437e-13
-8.59757e-13
1.38556e-12
1.60583e-12
-1.60583e-12
-1.38556e-12
2.20979e-12
2.47269e-12
-7.10543e-15
1.42109e-14
-2.25953e-12
-7.10543e-15
2.39453e-12
-3.09797e-12
-2.089e-12
5.40012e-13
0
0
0
2.18847e-12
2.24532e-12
-9.9476e-14
-1.56319e-13
2.8848e-12
4.10694e-12
4.46931e-12
6.45883e-12
3.78009e-12
-3.38929e-12
-6.07514e-12
-4.12825e-12
-4.00746e-12
-2.44427e-12
-3.55271e-12
-2.20979e-12
8.52651e-14
2.79243e-12
5.52092e-12
3.77298e-12
-2.01794e-12
-2.06768e-12
1.81899e-12
-7.53175e-13
-5.04485e-12
-1.15818e-12
1.24345e-12
-2.06057e-12
-1.84031e-12
0
0
0
0
1.44951e-12
1.46372e-12
-1.52056e-12
-1.46372e-12
0
0
0
0
0
2.17426e-12
3.83693e-12
-3.97904e-13
-1.39266e-12
1.86873e-12
8.45546e-13
-2.92033e-12
-1.49925e-12
1.13687e-13
6.25278e-13
-1.64846e-12
-1.47082e-12
0
0
0
0
0
0
0
0
0
0
0
0
0
0
0
0
0
-6.03961e-13
-6.46594e-13
-1.60583e-12
7.03437e-13
2.21689e-12
0
0
0
0
0
0
0
0
0
0
0
0
0
0
6.39488e-14
9.87654e-13
5.6275e-12
2.54943e-11
1.06915e-10
4.16051e-10
1.56117e-09
5.70769e-09
2.03922e-08
7.12496e-08
2.43453e-07
8.1312e-07
2.65294e-06
8.44944e-06
2.62496e-05
7.94789e-05
0.000234329
0.000672079
0.00187315
0.00506725
0.013288
0.0337294
0.0827404
0.195792
0.445998
0.975671
2.04432
4.09109
7.78963
14.0416
23.7723
37.0364
53.2133
71.876
92.3794
114.013
136.139
158.252
179.982
201.073
221.353
240.705
259.054
276.35
292.561
307.669
321.665
334.537
346.314
356.917
366.567
374.863
382.391
388.767
393.814
398.565
401.944
404.244
406.631
408.003
408.491
408.851
409.25
409.331
409.093
408.936
408.871
408.836
408.734
408.47
408.318
408.227
407.92
407.636
407.651
408.006
409.023
409.422
407.618
393.033
353.056
320.465
298.452
285.246
278.454
274.882
273.063
272.026
272.021
272.608
273.133
272.64
272.623
272.727
273.134
272.86
271.747
271.622
271.853
272.553
271.002
269.661
269.595
270.104
270.791
265.26
256.806
242.793
209.483
68.9447
19.9908
4.93888
1.17183
0.27523
0.0644371
0.0150603
0.00351479
0.000818958
0.000190448
4.41802e-05
1.02177e-05
2.35431e-06
5.4008e-07
1.2326e-07
2.79677e-08
6.30507e-09
1.41157e-09
3.13824e-10
6.92211e-11
1.50671e-11
3.04645e-12
3.32179e-13
-3.09086e-13
-2.07834e-13
1.63425e-13
3.03757e-13
-5.20473e-13
-5.52447e-13
4.63629e-13
2.91323e-13
2.13163e-13
5.54223e-13
-7.95808e-13
-6.57252e-13
1.42109e-14
-1.22569e-13
0
5.52447e-13
6.02185e-13
-1.77636e-15
4.83169e-13
-3.55271e-15
-1.7053e-13
-2.04281e-13
-3.30402e-13
2.52243e-13
1.59872e-13
1.22569e-13
1.24345e-14
-3.44613e-13
0
2.84217e-13
-3.55271e-14
-6.03961e-13
2.02505e-13
4.45866e-13
1.63425e-13
-5.43565e-13
-9.85878e-13
-1.03029e-13
0
0
-1.77636e-15
1.77636e-15
0
1.77636e-15
-5.22249e-13
-1.1422e-12
-1.33582e-12
-1.49036e-12
-1.19194e-12
7.97584e-13
7.35412e-13
8.01137e-13
1.55254e-12
1.8705e-12
6.4837e-13
-4.01457e-13
3.37508e-14
4.83169e-13
4.99156e-13
-5.54223e-13
-4.08562e-13
-2.36255e-13
-1.75859e-13
0
0
-1.77636e-15
-3.17968e-13
-5.15143e-13
-5.54223e-13
-6.53699e-13
-7.69163e-13
-1.42464e-12
-2.24532e-12
-4.47642e-13
-3.89022e-13
-8.01137e-13
-2.6823e-13
-3.71259e-13
3.14415e-13
4.15668e-13
1.54188e-12
1.42464e-12
6.82121e-13
8.95284e-13
2.06057e-13
2.82441e-13
7.19425e-13
-2.54019e-13
-1.06937e-12
-1.36247e-12
6.75016e-14
1.52767e-13
5.86198e-14
2.4869e-14
1.79412e-13
-2.45137e-13
-6.41265e-13
-1.48681e-12
1.42109e-14
8.49099e-13
-5.06262e-13
2.84217e-13
6.19949e-13
-5.64881e-13
-5.84421e-13
8.66862e-13
5.43565e-13
4.1922e-13
6.53699e-13
7.01661e-13
1.1191e-13
-9.5568e-13
-9.89431e-13
-1.5774e-12
-9.62785e-13
8.49099e-13
1.92379e-12
4.583e-13
-2.46914e-13
5.25802e-13
-3.55271e-14
-7.83373e-13
-1.65379e-12
-1.77636e-14
8.84626e-13
-5.08038e-13
1.82965e-13
5.48894e-13
1.59872e-14
2.55795e-13
9.29035e-13
6.23501e-13
6.53699e-13
6.32383e-13
8.40217e-13
2.61124e-13
-5.04485e-13
-1.88294e-13
8.26006e-13
9.9476e-13
3.01981e-14
7.10543e-15
3.37508e-14
0
0
0
-1.77636e-15
3.55271e-15
0
-5.32907e-15
-1.13687e-13
-4.9738e-13
-1.43885e-13
-5.32907e-14
-3.09086e-13
5.48894e-13
6.18172e-13
-5.32907e-15
-6.18172e-13
-4.54747e-13
-1.45661e-13
-4.3876e-13
2.64677e-13
2.22045e-13
6.75016e-13
7.54952e-13
-1.5099e-13
-1.19016e-13
0
0
0
-1.77636e-15
3.55271e-15
0
-5.32907e-15
-6.75016e-14
2.57572e-13
7.35412e-13
4.20997e-13
4.74287e-13
4.08562e-14
2.4869e-14
-1.20259e-12
-9.02389e-13
-4.17444e-13
-5.48894e-13
-4.36984e-13
2.64677e-13
2.27374e-13
6.75016e-13
7.54952e-13
-1.5099e-13
-1.19016e-13
0
0
0
-1.77636e-15
3.55271e-15
0
-5.32907e-15
1.77636e-15
0
0
-2.73559e-13
-6.07514e-13
2.96652e-13
6.69687e-13
-3.90799e-13
-7.47846e-13
-1.72307e-13
-2.85993e-13
-1.95399e-13
4.67182e-13
-1.01963e-12
1.56319e-13
1.67155e-12
5.43565e-13
-5.32907e-15
-7.10543e-14
-2.80664e-13
-7.58504e-13
-4.60076e-13
6.99885e-13
7.83373e-13
2.84217e-14
3.55271e-14
0
0
-2.73559e-13
-6.07514e-13
2.96652e-13
6.69687e-13
-3.90799e-13
-7.47846e-13
-1.72307e-13
-2.85993e-13
-1.95399e-13
4.67182e-13
-1.01963e-12
1.56319e-13
1.67155e-12
5.43565e-13
-5.32907e-15
0
-3.55271e-15
-5.29354e-13
-6.30607e-13
8.59757e-13
7.79821e-13
-2.00728e-13
-5.50671e-13
-4.51195e-13
-5.84421e-13
-6.32383e-13
-9.45022e-13
-1.48326e-12
-1.22569e-12
-5.32907e-13
1.03029e-13
2.04636e-12
1.9309e-12
6.0929e-13
1.08358e-13
3.00204e-13
3.8014e-13
-7.10543e-15
-4.60076e-13
-5.13367e-13
2.71783e-13
7.54952e-13
5.32907e-15
-6.2883e-13
8.59757e-13
7.79821e-13
-2.00728e-13
-5.50671e-13
-4.51195e-13
-5.84421e-13
-6.32383e-13
-9.45022e-13
-1.48326e-12
-1.22569e-12
-5.32907e-13
1.03029e-13
2.04636e-12
1.9309e-12
6.0929e-13
1.08358e-13
3.00204e-13
3.8014e-13
-7.10543e-15
-4.60076e-13
-5.13367e-13
2.71783e-13
7.54952e-13
5.32907e-15
-6.2883e-13
8.59757e-13
7.79821e-13
-2.00728e-13
-5.50671e-13
-4.51195e-13
-5.84421e-13
-6.32383e-13
-9.45022e-13
-1.48326e-12
-1.22569e-12
-5.32907e-13
1.03029e-13
2.04636e-12
1.9309e-12
6.0929e-13
1.08358e-13
3.00204e-13
3.8014e-13
-7.10543e-15
-4.60076e-13
-5.08038e-13
2.85993e-13
7.92255e-13
-4.06786e-13
-1.82787e-12
-1.76748e-12
-1.57208e-12
-8.88178e-13
-1.63247e-12
-2.93454e-12
-2.71783e-12
-1.99485e-12
-1.68932e-12
-1.34293e-12
-1.55254e-12
-1.00542e-12
2.59348e-13
-1.58984e-12
-2.04636e-12
-4.31655e-13
1.56319e-13
-2.6823e-13
-8.34888e-14
2.06235e-12
2.31815e-12
1.27898e-12
2.39098e-12
2.68052e-12
2.70539e-12
1.82787e-12
2.16005e-12
2.224e-12
1.77636e-14
6.39488e-13
9.39693e-13
1.74971e-12
1.81366e-12
8.98837e-13
1.45661e-13
0
2.30926e-14
0
0
1.77636e-15
-3.55271e-15
3.55271e-15
-5.32907e-15
1.77636e-15
0
0
-3.55271e-15
-5.68434e-13
-5.45342e-13
1.10134e-13
7.2653e-13
9.85878e-13
-9.23706e-14
-6.07514e-13
8.34888e-14
1.06581e-13
-1.15463e-13
-7.63833e-14
-3.55271e-15
1.77636e-15
0
0
0
0
1.77636e-15
-3.55271e-15
3.55271e-15
-5.32907e-15
1.77636e-15
0
0
-3.55271e-15
-5.68434e-13
-5.45342e-13
1.10134e-13
7.2653e-13
9.85878e-13
-9.23706e-14
-6.07514e-13
8.34888e-14
1.06581e-13
-1.15463e-13
-7.63833e-14
-3.55271e-15
1.77636e-15
0
0
0
0
1.77636e-15
-3.55271e-15
3.55271e-15
-5.32907e-15
1.77636e-15
0
0
-3.55271e-15
-5.68434e-13
-5.45342e-13
9.59233e-14
7.15872e-13
9.32587e-13
-5.38236e-13
-1.89715e-12
-1.41398e-12
-3.90799e-13
-5.34683e-13
-1.1724e-13
4.49418e-13
2.18492e-12
2.61124e-12
3.88312e-12
)
;

boundaryField
{
    sides
    {
        type            calculated;
        value           nonuniform List<scalar> 2(4.00332e-12 1.40514e-11);
    }
    empty
    {
        type            empty;
        value           nonuniform 0();
    }
}


// ************************************************************************* //
