/*--------------------------------*- C++ -*----------------------------------*\
| =========                 |                                                 |
| \\      /  F ield         | OpenFOAM: The Open Source CFD Toolbox           |
|  \\    /   O peration     | Version:  4.1                                   |
|   \\  /    A nd           | Web:      www.OpenFOAM.org                      |
|    \\/     M anipulation  |                                                 |
\*---------------------------------------------------------------------------*/
FoamFile
{
    version     2.0;
    format      ascii;
    class       volScalarField;
    location    "0.0044";
    object      mag(U);
}
// * * * * * * * * * * * * * * * * * * * * * * * * * * * * * * * * * * * * * //

dimensions      [0 1 -1 0 0 0 0];

internalField   nonuniform List<scalar> 
1000
(
1.13745e-11
1.17588e-11
1.29953e-11
1.00085e-11
1.1826e-11
1.42303e-11
1.53398e-11
1.52725e-11
1.15148e-11
1.27797e-11
9.86463e-12
9.49216e-12
7.20407e-12
9.36632e-12
6.41299e-12
7.99456e-12
5.88026e-12
9.19666e-12
5.70472e-12
8.01691e-12
5.74474e-12
9.1011e-12
8.43463e-12
7.15599e-12
4.49132e-12
8.18918e-12
7.13092e-12
1.02963e-11
9.08405e-12
1.01749e-11
1.20715e-11
1.06927e-11
1.11174e-11
7.72498e-12
9.56262e-12
6.81523e-12
8.90728e-12
4.33826e-12
8.98016e-12
6.48347e-12
1.1678e-11
8.01243e-12
1.04718e-11
6.88773e-12
1.21549e-11
8.11708e-12
8.65722e-12
7.68022e-12
8.36106e-12
6.85044e-12
1.05515e-11
9.70403e-12
1.1052e-11
9.64687e-12
9.18329e-12
9.88087e-12
7.79771e-12
1.11542e-11
1.02497e-11
1.4817e-11
1.42361e-11
1.64179e-11
1.38359e-11
1.63558e-11
1.55418e-11
1.94959e-11
1.77244e-11
1.92043e-11
1.4696e-11
1.80706e-11
1.3625e-11
1.71094e-11
1.36224e-11
1.4996e-11
1.00752e-11
1.1867e-11
7.0022e-12
9.97925e-12
9.3075e-12
9.34075e-12
1.08216e-11
1.08503e-11
7.01459e-12
7.04959e-12
4.62425e-12
1.35778e-13
2.03083e-12
9.20729e-13
1.86052e-12
2.558e-12
1.52746e-12
1.92733e-12
2.25192e-14
5.31371e-12
1.46836e-12
5.86138e-12
4.9303e-12
6.24794e-12
6.6356e-12
1.02073e-11
9.65317e-12
1.03974e-11
1.05423e-11
8.06304e-12
7.77618e-12
4.87332e-12
7.61136e-12
7.9505e-12
8.86991e-12
1.20664e-11
1.06198e-11
1.09399e-11
1.01224e-11
9.99826e-12
1.3067e-11
1.258e-11
1.19159e-11
1.14075e-11
1.18621e-11
1.37276e-11
1.54772e-11
1.59332e-11
1.20974e-11
1.15695e-11
1.03267e-11
8.55523e-12
8.32436e-12
1.34142e-11
9.08919e-12
1.10034e-11
1.04152e-11
1.18826e-11
1.42709e-11
1.41948e-11
1.69564e-11
1.62814e-11
1.47335e-11
1.53552e-11
1.51212e-11
1.3554e-11
1.40811e-11
1.31178e-11
1.06831e-11
1.31056e-11
1.40598e-11
1.65999e-11
1.73285e-11
1.36852e-11
1.46488e-11
1.24964e-11
1.17804e-11
8.39972e-12
1.03393e-11
6.69123e-12
9.13864e-12
8.62892e-12
1.01523e-11
1.02674e-11
1.04595e-11
1.2799e-11
1.36685e-11
1.34964e-11
1.20844e-11
1.05964e-11
8.51868e-12
9.31458e-12
8.62498e-12
6.19523e-12
8.65905e-12
9.2373e-12
8.30723e-12
8.13155e-12
7.99941e-12
8.11596e-12
6.05209e-12
7.86329e-12
6.29396e-12
7.43467e-12
3.13188e-12
7.02632e-12
6.34057e-12
9.2192e-12
9.79222e-12
1.12109e-11
1.26947e-11
1.32966e-11
9.93187e-12
1.11538e-11
8.94977e-12
8.26068e-12
1.02868e-11
8.79127e-12
1.01361e-11
6.87031e-12
1.02327e-11
7.27875e-12
9.20495e-12
7.36194e-12
1.27663e-11
8.22291e-12
1.19558e-11
6.98546e-12
1.07059e-11
1.04525e-11
1.31184e-11
9.92183e-12
9.97442e-12
8.04867e-12
7.64262e-12
9.4146e-12
1.21872e-11
1.20295e-11
9.63102e-12
1.13496e-11
7.95433e-12
1.05571e-11
4.24818e-12
7.27948e-12
4.46752e-12
7.05461e-12
6.13044e-12
1.08962e-11
5.65273e-12
1.02538e-11
4.81318e-12
7.16703e-12
2.69443e-12
7.9909e-12
6.05848e-12
8.98464e-12
7.78159e-12
1.1266e-11
1.13711e-11
8.64301e-12
1.03432e-11
6.68909e-12
9.5438e-12
7.37184e-12
1.03681e-11
5.7148e-12
1.04325e-11
7.61129e-12
1.08179e-11
7.61997e-12
1.04425e-11
6.99499e-12
9.57407e-12
7.3905e-12
7.73291e-12
5.73434e-12
9.69742e-12
7.07441e-12
9.80091e-12
7.35856e-12
8.99366e-12
8.0417e-12
8.07958e-12
7.34468e-12
6.74191e-12
4.99447e-12
8.92234e-12
8.66587e-12
8.49734e-12
6.62695e-12
6.82302e-12
5.25589e-12
4.74473e-12
6.99534e-12
4.50385e-12
7.97891e-12
9.72552e-12
1.38938e-11
2.01844e-11
3.36889e-11
6.50828e-11
1.38851e-10
2.94487e-10
6.3795e-10
1.35519e-09
2.86445e-09
5.9865e-09
1.24183e-08
2.55263e-08
5.203e-08
1.05132e-07
2.10598e-07
4.18171e-07
8.22967e-07
1.60502e-06
3.1016e-06
5.93783e-06
1.126e-05
2.11464e-05
3.9323e-05
7.23908e-05
0.000131904
0.000237834
0.000424262
0.000748566
0.00130602
0.00225253
0.0038394
0.00646529
0.0107521
0.0176531
0.0286016
0.0457102
0.0720253
0.111836
0.171028
0.257444
0.381198
0.554854
0.793333
1.11339
1.53245
2.06647
2.72625
3.51228
4.41445
5.41945
6.51636
7.69617
8.95035
10.2705
11.6484
13.0768
14.5486
16.0581
17.6
19.1699
20.7641
22.3794
24.0133
25.6633
27.3278
29.0049
30.6934
32.3921
34.1
35.8162
37.5398
39.2703
41.0071
42.7496
44.4973
46.2499
48.0069
49.768
51.5329
53.3013
55.073
56.8476
58.625
60.405
62.1873
63.9718
65.7583
67.5467
69.3368
71.1284
72.9214
74.7156
76.511
78.3074
80.1047
81.9027
83.7013
85.5005
87.3
89.0998
90.8998
92.6997
94.4997
96.2994
98.0988
99.8977
101.696
103.494
105.291
107.087
108.882
110.675
112.467
114.258
116.047
117.834
119.62
121.403
123.183
124.961
126.737
128.509
130.278
132.044
133.806
135.564
137.317
139.066
140.811
142.549
144.283
146.01
147.73
149.444
151.15
152.848
154.538
156.218
157.888
159.548
161.196
162.832
164.454
166.062
167.655
169.231
170.789
172.328
173.846
175.341
176.811
178.256
179.672
181.057
182.409
183.725
185.003
186.238
187.431
188.574
189.667
190.706
191.687
192.608
193.466
194.257
194.981
195.634
196.217
196.731
197.174
197.551
197.865
198.119
198.319
198.471
198.581
198.657
198.704
198.729
198.74
198.743
198.743
198.742
198.738
198.73
198.715
198.693
198.67
198.65
198.632
198.619
198.609
198.602
198.597
198.594
198.592
198.59
198.589
198.588
198.588
198.587
198.586
198.585
198.584
198.583
198.582
198.582
198.581
198.58
198.58
198.579
198.578
198.577
198.577
198.576
198.576
198.575
198.575
198.574
198.573
198.573
198.572
198.571
198.571
198.57
198.57
198.569
198.569
198.568
198.567
198.567
198.566
198.566
198.565
198.565
198.564
198.564
198.564
198.563
198.563
198.562
198.561
198.561
198.56
198.559
198.559
198.558
198.557
198.557
198.556
198.555
198.555
198.554
198.554
198.553
198.552
198.552
198.551
198.551
198.551
198.55
198.55
198.55
198.549
198.547
198.546
198.546
198.547
198.546
198.546
198.546
198.546
198.545
198.545
198.545
198.545
198.544
198.544
198.544
198.543
198.543
198.543
198.543
198.543
198.542
198.542
198.542
198.542
198.541
198.541
198.541
198.541
198.541
198.541
198.541
198.541
198.54
198.54
198.541
198.54
198.54
198.54
198.54
198.541
198.54
198.54
198.543
198.552
198.565
198.597
198.684
198.848
198.873
198.704
198.558
198.491
198.488
198.493
198.485
198.489
198.521
198.545
198.532
198.511
198.523
198.552
198.548
198.519
198.512
198.541
198.558
198.532
198.505
198.52
198.55
198.539
198.504
198.502
198.535
198.544
198.513
198.494
198.521
198.549
198.528
198.493
198.503
198.542
198.544
198.506
198.49
198.521
198.548
198.523
198.489
198.503
198.539
198.536
198.499
198.489
198.523
198.544
198.514
198.483
198.504
198.54
198.529
198.488
198.485
198.523
198.539
198.505
198.477
198.502
198.536
198.52
198.48
198.482
198.522
198.531
198.493
198.467
198.496
198.53
198.51
198.468
198.472
198.51
198.517
198.477
198.454
198.486
198.515
198.485
198.442
198.454
198.495
198.492
198.444
198.423
198.455
198.482
198.451
198.405
198.411
198.446
198.441
198.392
198.37
198.398
198.415
198.372
198.325
198.335
198.366
198.341
198.279
198.258
198.285
198.287
198.227
198.173
198.176
198.193
198.152
198.079
198.046
198.053
198.034
197.959
197.891
197.871
197.858
197.791
197.697
197.638
197.609
197.554
197.442
197.338
197.274
197.216
197.092
196.929
196.808
196.721
196.591
196.369
196.156
196.011
195.87
195.594
195.243
194.973
194.774
194.443
193.885
193.371
193.044
192.637
191.584
189.923
187.335
181.658
163.992
110.165
40.895
10.8198
2.66997
0.63871
0.151374
0.035787
0.00845594
0.00199792
0.00047205
0.00011153
2.63498e-05
6.22509e-06
1.47061e-06
3.474e-07
8.2061e-08
1.93788e-08
4.57457e-09
1.07396e-09
2.51597e-10
5.59621e-11
1.13943e-11
2.14015e-12
5.47793e-12
7.55926e-12
4.69226e-12
5.40016e-12
4.26112e-12
4.79203e-12
4.34875e-12
5.20466e-12
6.89317e-12
3.982e-12
3.172e-12
7.43341e-13
2.85788e-12
2.14627e-12
7.44684e-13
1.17129e-13
4.12571e-13
2.48356e-12
1.41263e-12
4.41551e-13
2.30602e-12
3.25572e-13
3.60168e-12
4.18218e-12
6.88039e-12
3.69608e-12
5.55326e-12
4.7968e-12
7.37573e-12
5.90407e-12
7.96033e-12
8.12195e-12
6.39303e-12
8.53866e-12
5.52954e-12
8.7037e-12
4.6965e-12
7.97777e-12
3.73153e-12
5.8639e-12
2.78507e-12
1.71786e-12
5.69037e-13
1.643e-12
3.16762e-12
3.42839e-13
5.14442e-12
7.38912e-13
1.30029e-12
2.23126e-12
8.31844e-13
7.27237e-13
4.23366e-12
3.96647e-12
5.48058e-12
5.49339e-12
6.59392e-12
7.21681e-12
6.70113e-12
8.3559e-12
7.46629e-12
7.46272e-12
1.01218e-11
9.79118e-12
8.19713e-12
7.92825e-12
7.05647e-12
7.22922e-12
5.54403e-12
5.74737e-12
6.76088e-12
8.46158e-12
1.04567e-11
9.48625e-12
1.01817e-11
9.8114e-12
6.92033e-12
6.55165e-12
4.3904e-12
4.62067e-12
1.93448e-12
3.74668e-12
4.95663e-12
6.29028e-12
5.92833e-12
5.56577e-12
3.82616e-12
3.23343e-12
1.30961e-12
7.34881e-13
2.28138e-12
1.95741e-12
3.74473e-12
5.64293e-12
3.80282e-12
3.93615e-12
1.16685e-12
1.95904e-12
9.10074e-13
9.48583e-13
3.48881e-12
3.74453e-12
2.84978e-12
1.48076e-12
3.86699e-12
4.37911e-12
7.61399e-12
6.93956e-12
8.55114e-12
9.99452e-12
1.04777e-11
8.27657e-12
9.32659e-12
5.15055e-12
5.01006e-12
5.11021e-12
4.34887e-12
5.73328e-12
1.58995e-12
3.1562e-12
2.76213e-12
2.96699e-12
4.44442e-12
5.10883e-12
4.30601e-12
5.58605e-12
7.76803e-12
6.92602e-12
6.58146e-12
5.6351e-12
3.99436e-12
2.49863e-12
2.01329e-12
1.1316e-12
1.38052e-13
6.34817e-15
1.98723e-12
1.31893e-12
2.11829e-12
7.55948e-13
1.71345e-12
9.08803e-13
3.91389e-12
2.34809e-12
1.03598e-12
6.55828e-12
4.59889e-12
5.83542e-12
5.16966e-12
9.05962e-12
8.55707e-12
1.047e-11
6.18335e-12
7.51693e-12
7.80781e-12
7.51321e-12
8.56589e-12
8.57327e-12
8.99829e-12
7.08449e-12
1.13797e-11
1.13759e-11
1.17644e-11
1.04349e-11
1.20969e-11
1.35434e-11
1.56847e-11
1.51561e-11
2.03407e-11
2.01132e-11
2.37094e-11
2.41941e-11
2.40701e-11
2.42856e-11
2.47439e-11
2.42213e-11
2.26114e-11
2.28698e-11
2.41314e-11
2.31855e-11
2.19559e-11
2.16283e-11
2.12103e-11
1.99865e-11
2.19082e-11
2.34374e-11
2.56883e-11
2.18452e-11
2.22045e-11
2.00191e-11
2.34705e-11
2.21501e-11
2.16085e-11
2.09745e-11
2.26749e-11
2.14229e-11
2.13056e-11
2.18709e-11
2.40492e-11
2.58916e-11
2.63119e-11
2.74048e-11
2.64031e-11
2.75284e-11
2.88744e-11
2.95375e-11
3.01169e-11
3.25062e-11
3.18081e-11
3.40785e-11
3.27446e-11
3.51746e-11
3.34461e-11
3.41334e-11
3.29606e-11
3.41672e-11
3.04528e-11
3.20879e-11
3.18597e-11
3.16183e-11
3.12438e-11
2.93285e-11
2.72195e-11
2.59844e-11
2.62568e-11
2.4309e-11
2.26246e-11
2.112e-11
2.28768e-11
2.18844e-11
2.09851e-11
2.09162e-11
2.30471e-11
1.91254e-11
2.32302e-11
1.94275e-11
2.33513e-11
2.07844e-11
2.38914e-11
2.29353e-11
)
;

boundaryField
{
    sides
    {
        type            calculated;
        value           nonuniform List<scalar> 2(2.29353e-11 1.13745e-11);
    }
    empty
    {
        type            empty;
    }
}


// ************************************************************************* //
