/*--------------------------------*- C++ -*----------------------------------*\
| =========                 |                                                 |
| \\      /  F ield         | OpenFOAM: The Open Source CFD Toolbox           |
|  \\    /   O peration     | Version:  4.1                                   |
|   \\  /    A nd           | Web:      www.OpenFOAM.org                      |
|    \\/     M anipulation  |                                                 |
\*---------------------------------------------------------------------------*/
FoamFile
{
    version     2.0;
    format      ascii;
    class       volScalarField;
    location    "0.0044";
    object      p;
}
// * * * * * * * * * * * * * * * * * * * * * * * * * * * * * * * * * * * * * //

dimensions      [1 -1 -2 0 0 0 0];

internalField   nonuniform List<scalar> 
1000
(
100000
100000
100000
100000
100000
100000
100000
100000
100000
100000
100000
100000
100000
100000
100000
100000
100000
100000
100000
100000
100000
100000
100000
100000
100000
100000
100000
100000
100000
100000
100000
100000
100000
100000
100000
100000
100000
100000
100000
100000
100000
100000
100000
100000
100000
100000
100000
100000
100000
100000
100000
100000
100000
100000
100000
100000
100000
100000
100000
100000
100000
100000
100000
100000
100000
100000
100000
100000
100000
100000
100000
100000
100000
100000
100000
100000
100000
100000
100000
100000
100000
100000
100000
100000
100000
100000
100000
100000
100000
100000
100000
100000
100000
100000
100000
100000
100000
100000
100000
100000
100000
100000
100000
100000
100000
100000
100000
100000
100000
100000
100000
100000
100000
100000
100000
100000
100000
100000
100000
100000
100000
100000
100000
100000
100000
100000
100000
100000
100000
100000
100000
100000
100000
100000
100000
100000
100000
100000
100000
100000
100000
100000
100000
100000
100000
100000
100000
100000
100000
100000
100000
100000
100000
100000
100000
100000
100000
100000
100000
100000
100000
100000
100000
100000
100000
100000
100000
100000
100000
100000
100000
100000
100000
100000
100000
100000
100000
100000
100000
100000
100000
100000
100000
100000
100000
100000
100000
100000
100000
100000
100000
100000
100000
100000
100000
100000
100000
100000
100000
100000
100000
100000
100000
100000
100000
100000
100000
100000
100000
100000
100000
100000
100000
100000
100000
100000
100000
100000
100000
100000
100000
100000
100000
100000
100000
100000
100000
100000
100000
100000
100000
100000
100000
100000
100000
100000
100000
100000
100000
100000
100000
100000
100000
100000
100000
100000
100000
100000
100000
100000
100000
100000
100000
100000
100000
100000
100000
100000
100000
100000
100000
100000
100000
100000
100000
100000
100000
100000
100000
100000
100000
100000
100000
100000
100000
100000
100000
100000
100000
100000
100000
100000
100000
100000
100000
100000
100000
100000
100000
100000
100000
100000
100000
100000
100000
100000
99999.9
99999.9
99999.7
99999.6
99999.2
99998.7
99997.8
99996.3
99993.9
99990.1
99984.2
99975.1
99961.3
99940.8
99910.9
99868
99807.7
99724.9
99613.8
99468.2
99282.5
99052.9
98779.3
98466.1
98118.7
97741
97336.4
96908
96459.1
95992.5
95511.1
95017.3
94513.3
94000.9
93481.8
92957.3
92428.5
91896.3
91361.7
90825.1
90287.3
89748.6
89209.5
88670.4
88131.5
87593.2
87055.6
86518.9
85983.4
85449.1
84916.3
84385.1
83855.4
83327.6
82801.6
82277.5
81755.3
81235.3
80717.4
80201.6
79688.1
79176.8
78667.8
78161.2
77656.9
77155.1
76655.7
76158.8
75664.3
75172.4
74683.1
74196.3
73712.1
73230.5
72751.6
72275.3
71801.6
71330.7
70862.4
70396.9
69934.1
69474.1
69016.8
68562.3
68110.6
67661.8
67215.8
66772.6
66332.3
65894.9
65460.4
65028.9
64600.3
64174.7
63752.2
63332.6
62916.1
62502.8
62092.5
61685.4
61281.5
60880.8
60483.5
60089.4
59698.8
59311.5
58927.8
58547.6
58171.1
57798.2
57429.1
57063.9
56702.7
56345.5
55992.6
55643.9
55299.7
54960
54625.1
54295.2
53970.3
53650.8
53336.8
53028.6
52726.5
52430.6
52141.7
51859.3
51584.8
51317.6
51058.9
50808.6
50567.4
50335.8
50114.1
49903.2
49703.2
49514.8
49338.6
49174.7
49023.8
48886.1
48761.9
48651
48553.5
48469.1
48397.6
48337.7
48289.2
48251.2
48221.9
48200.5
48185.7
48176.3
48171.4
48169
48168.8
48168.9
48169.2
48169.8
48171.1
48173.7
48176.8
48181.2
48185.2
48188.4
48191
48192.8
48194.1
48195
48195.6
48196
48196.3
48196.5
48196.6
48196.8
48196.9
48197
48197.1
48197.2
48197.3
48197.5
48197.6
48197.7
48197.9
48197.9
48198
48198.1
48198.2
48198.3
48198.4
48198.5
48198.6
48198.7
48198.8
48198.8
48198.9
48199
48199.1
48199.2
48199.3
48199.4
48199.5
48199.5
48199.6
48199.6
48199.7
48199.8
48199.9
48200
48200.1
48200.2
48200.2
48200.3
48200.4
48200.5
48200.5
48200.6
48200.6
48200.7
48200.7
48200.8
48200.8
48200.8
48200.9
48200.9
48201
48201
48201.1
48201.2
48201.3
48201.4
48201.4
48201.6
48201.7
48201.8
48202
48202.2
48202.4
48202.3
48201.4
48201.2
48201.9
48202.1
48202.1
48202.2
48202.2
48202.2
48202.2
48202.2
48202.2
48202.3
48202.3
48202.3
48202.3
48202.3
48202.3
48202.3
48202.3
48202.3
48202.3
48202.3
48202.3
48202.3
48202.3
48202.3
48202.3
48202.3
48202.2
48202.2
48202.1
48202
48201.9
48201.8
48201.8
48201.8
48201.8
48201.7
48201.8
48202
48202
48202
48201.9
48201.8
48202.5
48204.5
48210.2
48212.5
48198.1
48196.6
48190.9
48197
48209.1
48209.4
48197.5
48195.8
48207.7
48212.2
48201.9
48193.7
48200.7
48212.5
48209.2
48194.5
48193.8
48209.3
48213.8
48199.7
48191.3
48201.6
48213.8
48207.7
48192
48194.1
48210.9
48212.5
48195.6
48190.4
48205.6
48214.8
48203
48189.4
48196.4
48213.7
48212.4
48193
48189.5
48207
48215.1
48201.7
48189.2
48197.5
48213.5
48210.4
48191.5
48190.3
48209
48214.7
48198
48187.9
48200.5
48214.8
48207.7
48189.2
48190.8
48210.7
48214.3
48195.9
48187.4
48201.6
48214.6
48205.3
48187.9
48191.9
48212.1
48213.2
48192.4
48186.2
48202.9
48214.4
48203.4
48186.8
48191.2
48211
48211.3
48190.4
48185.1
48203.7
48213.5
48197.9
48183
48191.8
48211.2
48208.3
48185.3
48181.6
48201.1
48210.1
48194.5
48180
48186.7
48204.9
48202.1
48180.2
48177.1
48196.1
48203.2
48183
48170.5
48181.7
48198.2
48188.6
48165.9
48165.5
48185.7
48189.5
48164.7
48154.4
48165
48179.4
48166
48144.4
48143.3
48159.2
48160.7
48133.9
48125
48130.5
48141.9
48124
48103.2
48100.2
48108.1
48106.8
48073.5
48062.9
48061.5
48068.7
48041.9
48010.4
48003.4
48007.9
48003.5
47944
47922.4
47917
47926.4
47864.8
47802.1
47784.3
47790.5
47762.9
47630.9
47583.2
47569.8
47568.5
47375.8
47130.3
46798.1
46183.6
44416.9
36452.2
28326
25889.6
25217.8
25052
25012.3
25002.9
25000.7
25000.2
25000
25000
25000
25000
25000
25000
25000
25000
25000
25000
25000
25000
25000
25000
25000
25000
25000
25000
25000
25000
25000
25000
25000
25000
25000
25000
25000
25000
25000
25000
25000
25000
25000
25000
25000
25000
25000
25000
25000
25000
25000
25000
25000
25000
25000
25000
25000
25000
25000
25000
25000
25000
25000
25000
25000
25000
25000
25000
25000
25000
25000
25000
25000
25000
25000
25000
25000
25000
25000
25000
25000
25000
25000
25000
25000
25000
25000
25000
25000
25000
25000
25000
25000
25000
25000
25000
25000
25000
25000
25000
25000
25000
25000
25000
25000
25000
25000
25000
25000
25000
25000
25000
25000
25000
25000
25000
25000
25000
25000
25000
25000
25000
25000
25000
25000
25000
25000
25000
25000
25000
25000
25000
25000
25000
25000
25000
25000
25000
25000
25000
25000
25000
25000
25000
25000
25000
25000
25000
25000
25000
25000
25000
25000
25000
25000
25000
25000
25000
25000
25000
25000
25000
25000
25000
25000
25000
25000
25000
25000
25000
25000
25000
25000
25000
25000
25000
25000
25000
25000
25000
25000
25000
25000
25000
25000
25000
25000
25000
25000
25000
25000
25000
25000
25000
25000
25000
25000
25000
25000
25000
25000
25000
25000
25000
25000
25000
25000
25000
25000
25000
25000
25000
25000
25000
25000
25000
25000
25000
25000
25000
25000
25000
25000
25000
25000
25000
25000
25000
25000
25000
25000
25000
25000
25000
25000
25000
25000
25000
25000
25000
25000
25000
25000
25000
25000
25000
25000
25000
25000
25000
25000
25000
25000
25000
25000
25000
25000
25000
25000
25000
25000
25000
25000
25000
)
;

boundaryField
{
    sides
    {
        type            zeroGradient;
    }
    empty
    {
        type            empty;
    }
}


// ************************************************************************* //
