/*--------------------------------*- C++ -*----------------------------------*\
| =========                 |                                                 |
| \\      /  F ield         | OpenFOAM: The Open Source CFD Toolbox           |
|  \\    /   O peration     | Version:  4.1                                   |
|   \\  /    A nd           | Web:      www.OpenFOAM.org                      |
|    \\/     M anipulation  |                                                 |
\*---------------------------------------------------------------------------*/
FoamFile
{
    version     2.0;
    format      ascii;
    class       surfaceScalarField;
    location    "0.0044";
    object      phi;
}
// * * * * * * * * * * * * * * * * * * * * * * * * * * * * * * * * * * * * * //

dimensions      [1 0 -1 0 0 0 0];

internalField   nonuniform List<scalar> 
999
(
-3.92291e-11
-4.37907e-11
-3.92077e-11
-3.74101e-11
-4.56595e-11
-5.15357e-11
-5.32125e-11
-4.6974e-11
-4.15596e-11
-4.00533e-11
-3.37508e-11
-2.88196e-11
-2.83435e-11
-2.84999e-11
-2.34763e-11
-2.51532e-11
-2.71427e-11
-2.48406e-11
-2.50822e-11
-2.25739e-11
-2.69864e-11
-3.01839e-11
-2.64677e-11
-2.12665e-11
-2.09042e-11
-2.77964e-11
-2.92673e-11
-3.498e-11
-3.2415e-11
-3.89662e-11
-4.0238e-11
-3.85896e-11
-3.18821e-11
-2.93454e-11
-2.71712e-11
-2.9388e-11
-2.17852e-11
-2.39666e-11
-2.59277e-11
-3.11218e-11
-3.68061e-11
-3.0262e-11
-3.11218e-11
-3.1406e-11
-3.64082e-11
-2.97149e-11
-2.84359e-11
-2.66951e-11
-2.74767e-11
-2.91749e-11
-3.59393e-11
-3.66072e-11
-3.69127e-11
-3.13491e-11
-3.34381e-11
-3.08873e-11
-3.282e-11
-3.64935e-11
-4.43592e-11
-5.0953e-11
-5.44276e-11
-5.08393e-11
-5.34328e-11
-5.44205e-11
-6.08651e-11
-6.6855e-11
-6.43254e-11
-5.71276e-11
-5.85132e-11
-5.45057e-11
-5.21965e-11
-5.45981e-11
-5.02496e-11
-4.24691e-11
-3.95701e-11
-3.14557e-11
-3.10436e-11
-3.19531e-11
-3.30473e-11
-3.40208e-11
-3.91225e-11
-3.04254e-11
-2.39169e-11
-2.09397e-11
-8.1144e-12
-2.81375e-12
-1.76925e-12
-1.23634e-12
6.03961e-13
3.05533e-12
3.97904e-13
3.58114e-12
9.74865e-12
1.19158e-11
1.24274e-11
1.96749e-11
1.83888e-11
2.2979e-11
2.99138e-11
3.3971e-11
3.39355e-11
3.64153e-11
3.29479e-11
2.8372e-11
2.09823e-11
2.28511e-11
2.59632e-11
2.90328e-11
3.68416e-11
4.15525e-11
3.48024e-11
3.8952e-11
3.34666e-11
4.14033e-11
4.47429e-11
4.19007e-11
4.12399e-11
3.91367e-11
4.5361e-11
4.98019e-11
5.59766e-11
4.83595e-11
4.18936e-11
3.74456e-11
3.36016e-11
2.88196e-11
3.82911e-11
3.98472e-11
3.46603e-11
3.62022e-11
3.87388e-11
4.53113e-11
5.12941e-11
5.26441e-11
5.96785e-11
5.22249e-11
5.31202e-11
5.16707e-11
5.13225e-11
4.81819e-11
4.81677e-11
4.00391e-11
4.1986e-11
4.691e-11
5.13509e-11
6.18385e-11
5.3106e-11
4.68106e-11
4.9404e-11
4.1382e-11
3.48592e-11
3.33031e-11
2.99352e-11
2.65956e-11
3.1612e-11
3.18536e-11
3.69766e-11
3.48166e-11
4.08349e-11
4.46718e-11
4.76916e-11
4.47287e-11
4.10267e-11
3.29123e-11
3.00844e-11
3.09512e-11
2.69083e-11
2.49116e-11
3.17897e-11
3.01625e-11
2.79456e-11
2.86562e-11
2.84786e-11
2.33911e-11
2.57359e-11
2.36398e-11
2.44569e-11
1.80975e-11
1.72946e-11
2.24816e-11
2.76685e-11
3.39639e-11
3.47526e-11
4.30163e-11
4.60716e-11
3.94706e-11
3.69482e-11
3.41558e-11
2.93667e-11
3.18536e-11
3.471e-11
3.20455e-11
2.82796e-11
3.11005e-11
3.02691e-11
2.97291e-11
2.74056e-11
3.43476e-11
3.74598e-11
3.69553e-11
3.13847e-11
3.11999e-11
3.56053e-11
4.25118e-11
3.96483e-11
3.49374e-11
3.03046e-11
2.83933e-11
2.88622e-11
3.65716e-11
4.37126e-11
3.62306e-11
3.7204e-11
3.43761e-11
3.17897e-11
2.59561e-11
1.93836e-11
2.11955e-11
2.06271e-11
2.18989e-11
3.06244e-11
2.80593e-11
2.88836e-11
2.48548e-11
2.20908e-11
1.60725e-11
1.93197e-11
2.55653e-11
2.43645e-11
2.84857e-11
3.43761e-11
4.0238e-11
3.30758e-11
3.40563e-11
2.99494e-11
2.83507e-11
2.8237e-11
3.28058e-11
2.6084e-11
2.73062e-11
3.29976e-11
3.08447e-11
3.28981e-11
3.12355e-11
3.0461e-11
2.93525e-11
2.88267e-11
2.55298e-11
2.46914e-11
2.57145e-11
3.02052e-11
2.84714e-11
3.08944e-11
2.72209e-11
3.03402e-11
2.88054e-11
2.5949e-11
2.53166e-11
1.95186e-11
2.5473e-11
2.97717e-11
2.87841e-11
2.79101e-11
2.24389e-11
2.01652e-11
1.87299e-11
1.92273e-11
2.04139e-11
2.17e-11
3.02052e-11
3.96341e-11
5.68647e-11
8.93152e-11
1.63638e-10
3.3544e-10
7.14799e-10
1.53877e-09
3.29401e-09
6.97936e-09
1.46531e-08
3.04984e-08
6.29347e-08
1.28752e-07
2.61147e-07
5.25116e-07
1.04673e-06
2.06811e-06
4.04961e-06
7.85766e-06
1.51059e-05
2.87677e-05
5.42619e-05
0.000101353
0.000187435
0.000343122
0.000621641
0.00111436
0.0019761
0.00346556
0.00600904
0.0102986
0.0174405
0.0291743
0.0481891
0.0785661
0.12638
0.200482
0.313486
0.482916
0.732463
1.09318
1.60436
2.31373
3.27641
4.55208
6.19957
8.2677
10.7796
13.7085
16.9956
20.592
24.4611
28.5694
32.8838
37.3724
42.0054
46.7557
51.5996
56.5165
61.4887
66.5014
71.5421
76.6004
81.6675
86.7361
91.7999
96.8537
101.893
106.915
111.915
116.89
121.84
126.761
131.651
136.51
141.335
146.126
150.882
155.601
160.283
164.927
169.533
174.1
178.627
183.115
187.562
191.968
196.334
200.659
204.942
209.184
213.384
217.543
221.66
225.734
229.767
233.758
237.706
241.613
245.477
249.299
253.079
256.817
260.512
264.166
267.777
271.347
274.874
278.36
281.804
285.205
288.565
291.884
295.16
298.395
301.589
304.741
307.851
310.921
313.948
316.935
319.88
322.784
325.646
328.468
331.248
333.987
336.685
339.341
341.956
344.53
347.063
349.553
352.003
354.41
356.776
359.099
361.38
363.619
365.815
367.967
370.076
372.141
374.161
376.138
378.067
379.953
381.786
383.583
385.312
387.02
388.642
390.251
391.773
393.256
394.702
396.032
397.397
398.597
399.814
400.95
401.962
403.018
403.901
404.751
405.585
406.239
406.907
407.503
407.954
408.418
408.799
409.07
409.34
409.55
409.679
409.794
409.887
409.929
409.946
409.97
409.974
409.965
409.958
409.954
409.949
409.939
409.917
409.896
409.882
409.862
409.849
409.839
409.827
409.82
409.816
409.812
409.808
409.806
409.804
409.801
409.798
409.796
409.793
409.788
409.786
409.783
409.781
409.778
409.776
409.773
409.769
409.766
409.763
409.76
409.756
409.754
409.752
409.748
409.745
409.743
409.739
409.735
409.732
409.729
409.725
409.722
409.719
409.715
409.711
409.707
409.703
409.699
409.695
409.691
409.687
409.684
409.681
409.676
409.671
409.667
409.664
409.659
409.652
409.647
409.643
409.638
409.63
409.624
409.619
409.614
409.607
409.599
409.594
409.59
409.584
409.575
409.568
409.564
409.56
409.554
409.546
409.54
409.538
409.537
409.5
409.472
409.469
409.475
409.47
409.465
409.455
409.439
409.422
409.41
409.402
409.396
409.387
409.368
409.345
409.324
409.31
409.303
409.296
409.283
409.252
409.218
409.19
409.172
409.162
409.152
409.133
409.086
409.031
408.985
408.953
408.934
408.921
408.905
408.86
408.737
408.602
408.489
408.409
408.367
408.354
408.359
408.464
408.674
408.79
408.793
408.624
406.655
396.505
372.326
349.577
330.286
315.09
302.991
293.65
286.793
282.224
279.19
276.967
275.257
274.355
274.165
273.914
273.398
273.163
273.336
273.557
273.422
273.082
273.099
273.502
273.559
273.144
273.04
273.386
273.569
273.334
273.05
273.193
273.561
273.531
273.087
273.033
273.502
273.627
273.267
273.029
273.231
273.586
273.523
273.089
273.063
273.525
273.617
273.214
273.032
273.309
273.612
273.468
273.06
273.095
273.566
273.624
273.139
273.016
273.39
273.629
273.425
273.052
273.122
273.579
273.609
273.107
273.013
273.463
273.648
273.349
273.027
273.153
273.591
273.599
273.097
273.009
273.462
273.639
273.312
273.007
273.183
273.609
273.553
273.035
272.981
273.527
273.66
273.198
272.958
273.174
273.58
273.522
273.021
272.959
273.449
273.591
273.146
272.919
273.156
273.532
273.381
272.898
272.9
273.429
273.516
272.911
272.773
273.113
273.443
273.152
272.724
272.747
273.238
273.297
272.68
272.582
272.841
273.154
272.797
272.441
272.454
272.844
272.852
272.237
272.173
272.309
272.61
272.138
271.805
271.826
272.058
272.129
271.252
271.162
271.254
271.642
270.792
270.192
270.233
270.632
270.632
268.891
268.731
268.986
269.73
267.314
266.35
266.458
267.277
266.808
261.75
259.555
254.908
243.618
211.59
70.5127
20.8103
5.22711
1.25716
0.298486
0.0705997
0.0166827
0.00394153
0.000931269
0.000220031
5.19855e-05
1.22818e-05
2.90151e-06
6.85442e-07
1.61918e-07
3.82452e-08
9.03065e-09
2.12924e-09
4.99439e-10
1.15769e-10
2.52154e-11
3.3431e-12
-3.65752e-12
-5.98099e-12
-5.66658e-12
-4.06253e-12
-4.35918e-12
-4.15668e-12
-3.64331e-12
-4.33609e-12
-5.21361e-12
-4.96136e-12
-2.94165e-12
-1.14753e-12
-7.92255e-13
-2.45137e-12
-1.0747e-12
-3.42837e-13
1.7053e-13
1.60227e-12
3.21521e-13
-3.58824e-13
-1.0516e-12
-8.5798e-13
-1.98241e-12
-3.46567e-12
-4.73399e-12
-4.52793e-12
-4.23661e-12
-4.19398e-12
-5.69855e-12
-5.84066e-12
-5.50848e-12
-7.41984e-12
-6.41265e-12
-6.35758e-12
-6.18705e-12
-5.88862e-12
-6.11955e-12
-5.41789e-12
-5.17986e-12
-4.16378e-12
-3.77831e-12
-1.85985e-12
-3.90799e-13
7.56728e-13
2.41407e-12
1.37312e-12
2.43006e-12
2.55973e-12
9.45022e-13
-5.29354e-13
-4.79616e-13
6.11067e-13
1.90781e-12
3.81384e-12
4.34852e-12
4.56524e-12
5.02176e-12
6.32916e-12
5.91704e-12
6.62403e-12
7.00773e-12
6.26343e-12
7.58504e-12
8.65086e-12
7.77334e-12
7.39142e-12
6.1231e-12
6.13021e-12
5.30775e-12
5.2971e-12
5.14433e-12
6.90648e-12
8.16591e-12
8.49454e-12
8.69527e-12
8.59757e-12
7.41629e-12
5.65059e-12
4.59366e-12
4.17621e-12
2.66276e-12
2.40163e-12
4.01457e-12
5.02354e-12
5.22782e-12
4.71978e-12
4.36096e-12
2.87947e-12
9.69891e-13
-3.51719e-13
1.533e-12
1.73372e-12
2.37321e-12
4.2899e-12
4.33253e-12
3.0429e-12
2.37144e-12
1.46017e-12
1.15641e-12
9.41469e-13
1.72129e-12
3.4035e-12
2.71072e-12
1.94689e-12
2.21156e-12
3.68061e-12
5.16209e-12
6.59739e-12
6.30074e-12
8.45368e-12
9.166e-12
8.01315e-12
7.64189e-12
6.09468e-12
4.46043e-12
4.24372e-12
4.4782e-12
3.9293e-12
3.62377e-12
2.07301e-12
2.39098e-12
2.65565e-12
2.89191e-12
4.57057e-12
4.11937e-12
3.95062e-12
6.30962e-12
5.94014e-12
6.16751e-12
5.54579e-12
4.02167e-12
2.57216e-12
2.27729e-12
1.14397e-12
7.4607e-13
1.06581e-14
-7.63833e-13
-2.16716e-13
-4.45866e-13
-5.7554e-13
1.22213e-12
2.57572e-13
1.53655e-12
2.54019e-12
1.33404e-12
3.52607e-12
5.01998e-12
4.39115e-12
4.49418e-12
6.54765e-12
7.50155e-12
8.12861e-12
7.47669e-12
5.76428e-12
6.99707e-12
6.26166e-12
7.13918e-12
7.23333e-12
7.98295e-12
6.71818e-12
8.15881e-12
9.90141e-12
1.00879e-11
9.47509e-12
1.00844e-11
1.08393e-11
1.28519e-11
1.32214e-11
1.54969e-11
1.75522e-11
1.8872e-11
2.12275e-11
2.09273e-11
2.12239e-11
2.10054e-11
2.10232e-11
2.09717e-11
1.91243e-11
2.07496e-11
2.1199e-11
1.89626e-11
1.90195e-11
1.88187e-11
1.78506e-11
1.79732e-11
1.97051e-11
2.16325e-11
2.09894e-11
1.91402e-11
1.83036e-11
1.83569e-11
2.04299e-11
1.91953e-11
1.8229e-11
1.87441e-11
1.95275e-11
1.81615e-11
1.85008e-11
2.04583e-11
2.14353e-11
2.30767e-11
2.28564e-11
2.3908e-11
2.28368e-11
2.48832e-11
2.56133e-11
2.56506e-11
2.67804e-11
2.86544e-11
2.84555e-11
2.8761e-11
2.97486e-11
2.97451e-11
2.89653e-11
2.96847e-11
2.91145e-11
2.82725e-11
2.6624e-11
2.78675e-11
2.81251e-11
2.70255e-11
2.63292e-11
2.47891e-11
2.2764e-11
2.29612e-11
2.18918e-11
2.04121e-11
1.89626e-11
1.94529e-11
1.89981e-11
1.85523e-11
1.84812e-11
1.90425e-11
1.803e-11
1.90443e-11
1.84492e-11
1.84137e-11
1.93037e-11
1.91012e-11
2.06395e-11
)
;

boundaryField
{
    sides
    {
        type            calculated;
        value           nonuniform List<scalar> 2(1.99271e-11 3.9612e-11);
    }
    empty
    {
        type            empty;
        value           nonuniform 0();
    }
}


// ************************************************************************* //
