/*--------------------------------*- C++ -*----------------------------------*\
| =========                 |                                                 |
| \\      /  F ield         | OpenFOAM: The Open Source CFD Toolbox           |
|  \\    /   O peration     | Version:  4.1                                   |
|   \\  /    A nd           | Web:      www.OpenFOAM.org                      |
|    \\/     M anipulation  |                                                 |
\*---------------------------------------------------------------------------*/
FoamFile
{
    version     2.0;
    format      ascii;
    class       volScalarField;
    location    "0.0044";
    object      T;
}
// * * * * * * * * * * * * * * * * * * * * * * * * * * * * * * * * * * * * * //

dimensions      [0 0 0 1 0 0 0];

internalField   nonuniform List<scalar> 
1000
(
400
400
400
400
400
400
400
400
400
400
400
400
400
400
400
400
400
400
400
400
400
400
400
400
400
400
400
400
400
400
400
400
400
400
400
400
400
400
400
400
400
400
400
400
400
400
400
400
400
400
400
400
400
400
400
400
400
400
400
400
400
400
400
400
400
400
400
400
400
400
400
400
400
400
400
400
400
400
400
400
400
400
400
400
400
400
400
400
400
400
400
400
400
400
400
400
400
400
400
400
400
400
400
400
400
400
400
400
400
400
400
400
400
400
400
400
400
400
400
400
400
400
400
400
400
400
400
400
400
400
400
400
400
400
400
400
400
400
400
400
400
400
400
400
400
400
400
400
400
400
400
400
400
400
400
400
400
400
400
400
400
400
400
400
400
400
400
400
400
400
400
400
400
400
400
400
400
400
400
400
400
400
400
400
400
400
400
400
400
400
400
400
400
400
400
400
400
400
400
400
400
400
400
400
400
400
400
400
400
400
400
400
400
400
400
400
400
400
400
400
400
400
400
400
400
400
400
400
400
400
400
400
400
400
400
400
400
400
400
400
400
400
400
400
400
400
400
400
400
400
400
400
400
400
400
400
400
400
400
400
400
400
400
400
400
400
400
400
400
400
400
400
400
400
400
400
400
400
400
400
400
400
400
400
400
400
400
400
400
400
400
400
400
400
400
400
400
400
400
399.999
399.999
399.998
399.997
399.996
399.993
399.989
399.982
399.972
399.956
399.932
399.898
399.849
399.78
399.685
399.557
399.39
399.176
398.912
398.596
398.234
397.832
397.393
396.921
396.421
395.894
395.345
394.777
394.192
393.592
392.981
392.358
391.727
391.088
390.443
389.791
389.135
388.474
387.81
387.142
386.471
385.797
385.121
384.444
383.764
383.083
382.4
381.717
381.032
380.346
379.659
378.972
378.284
377.596
376.907
376.218
375.529
374.839
374.149
373.459
372.77
372.08
371.39
370.701
370.012
369.323
368.634
367.946
367.258
366.571
365.884
365.197
364.512
363.826
363.142
362.458
361.775
361.093
360.412
359.731
359.052
358.373
357.696
357.02
356.344
355.67
354.998
354.326
353.656
352.988
352.321
351.655
350.992
350.33
349.669
349.011
348.355
347.701
347.049
346.399
345.752
345.107
344.465
343.826
343.19
342.557
341.927
341.301
340.679
340.061
339.447
338.837
338.232
337.633
337.038
336.451
335.866
335.295
334.718
334.174
333.59
333.098
332.484
332.073
331.411
331.081
330.419
330.083
329.549
329.086
328.757
328.198
327.935
327.51
327.106
326.897
326.477
326.227
326.031
325.695
325.547
325.389
325.158
325.074
324.977
324.839
324.796
324.76
324.693
324.671
324.67
324.657
324.649
324.651
324.656
324.657
324.658
324.661
324.669
324.678
324.684
324.694
324.703
324.706
324.712
324.717
324.718
324.72
324.724
324.725
324.726
324.728
324.73
324.731
324.732
324.735
324.737
324.738
324.74
324.742
324.744
324.745
324.747
324.749
324.75
324.752
324.755
324.757
324.758
324.76
324.763
324.765
324.766
324.769
324.772
324.773
324.776
324.779
324.781
324.783
324.786
324.788
324.791
324.794
324.796
324.798
324.802
324.805
324.807
324.81
324.814
324.818
324.82
324.822
324.827
324.831
324.834
324.836
324.84
324.846
324.849
324.851
324.856
324.861
324.866
324.869
324.872
324.879
324.886
324.89
324.893
324.897
324.905
324.913
324.919
324.922
324.926
324.932
324.942
324.952
324.958
324.961
324.966
324.977
324.99
325.002
325.01
325.014
325.018
325.028
325.046
325.064
325.078
325.085
325.089
325.096
325.112
325.14
325.166
325.185
325.195
325.201
325.21
325.236
325.279
325.322
325.353
325.372
325.381
325.389
325.41
325.476
325.587
325.69
325.769
325.815
325.833
325.832
325.791
325.654
325.527
325.464
325.484
326.118
330.421
345.933
369.134
392.012
413.232
431.79
447.108
459.112
468.135
474.66
479.161
482.119
484.014
485.227
485.982
486.392
486.579
486.701
486.812
486.858
486.831
486.801
486.823
486.858
486.841
486.784
486.78
486.829
486.835
486.782
486.758
486.798
486.827
486.795
486.746
486.758
486.811
486.811
486.749
486.731
486.779
486.805
486.768
486.723
486.739
486.789
486.784
486.722
486.711
486.765
486.786
486.738
486.7
486.73
486.776
486.76
486.698
486.694
486.754
486.768
486.714
486.682
486.719
486.762
486.739
486.68
486.684
486.747
486.754
486.691
486.666
486.711
486.75
486.723
486.666
486.671
486.733
486.74
486.676
486.654
486.705
486.74
486.698
486.646
486.663
486.725
486.723
486.65
486.634
486.689
486.721
486.679
486.628
486.64
486.698
486.696
486.627
486.613
486.668
486.695
486.638
486.593
486.618
486.673
486.653
486.578
486.571
486.631
486.65
486.576
486.54
486.566
486.616
486.585
486.512
486.505
486.55
486.563
486.481
486.451
486.464
486.504
486.459
486.388
486.375
486.395
486.404
486.303
486.267
486.262
486.285
486.213
486.107
486.092
486.101
486.098
485.924
485.867
485.838
485.858
485.712
485.505
485.433
485.46
485.464
485.008
484.813
484.821
484.857
484.278
483.457
482.514
480.552
476.126
451.126
415.149
404.076
400.998
400.238
400.056
400.013
400.003
400.001
400
400
400
400
400
400
400
400
400
400
400
400
400
400
400
400
400
400
400
400
400
400
400
400
400
400
400
400
400
400
400
400
400
400
400
400
400
400
400
400
400
400
400
400
400
400
400
400
400
400
400
400
400
400
400
400
400
400
400
400
400
400
400
400
400
400
400
400
400
400
400
400
400
400
400
400
400
400
400
400
400
400
400
400
400
400
400
400
400
400
400
400
400
400
400
400
400
400
400
400
400
400
400
400
400
400
400
400
400
400
400
400
400
400
400
400
400
400
400
400
400
400
400
400
400
400
400
400
400
400
400
400
400
400
400
400
400
400
400
400
400
400
400
400
400
400
400
400
400
400
400
400
400
400
400
400
400
400
400
400
400
400
400
400
400
400
400
400
400
400
400
400
400
400
400
400
400
400
400
400
400
400
400
400
400
400
400
400
400
400
400
400
400
400
400
400
400
400
400
400
400
400
400
400
400
400
400
400
400
400
400
400
400
400
400
400
400
400
400
400
400
400
400
400
400
400
400
400
400
400
400
400
400
400
400
400
400
400
400
400
400
400
400
400
400
400
400
400
400
400
400
400
400
400
)
;

boundaryField
{
    sides
    {
        type            zeroGradient;
    }
    empty
    {
        type            empty;
    }
}


// ************************************************************************* //
