/*--------------------------------*- C++ -*----------------------------------*\
| =========                 |                                                 |
| \\      /  F ield         | OpenFOAM: The Open Source CFD Toolbox           |
|  \\    /   O peration     | Version:  4.1                                   |
|   \\  /    A nd           | Web:      www.OpenFOAM.org                      |
|    \\/     M anipulation  |                                                 |
\*---------------------------------------------------------------------------*/
FoamFile
{
    version     2.0;
    format      ascii;
    class       volVectorField;
    location    "0.0044";
    object      U;
}
// * * * * * * * * * * * * * * * * * * * * * * * * * * * * * * * * * * * * * //

dimensions      [0 1 -1 0 0 0 0];

internalField   nonuniform List<vector> 
1000
(
(-1.13745e-11 0 0)
(-1.17588e-11 0 0)
(-1.29953e-11 0 0)
(-1.00085e-11 0 0)
(-1.1826e-11 0 0)
(-1.42303e-11 0 0)
(-1.53398e-11 0 0)
(-1.52725e-11 0 0)
(-1.15148e-11 0 0)
(-1.27797e-11 0 0)
(-9.86463e-12 0 0)
(-9.49216e-12 0 0)
(-7.20407e-12 0 0)
(-9.36632e-12 0 0)
(-6.41299e-12 0 0)
(-7.99456e-12 0 0)
(-5.88026e-12 0 0)
(-9.19666e-12 0 0)
(-5.70472e-12 0 0)
(-8.01691e-12 0 0)
(-5.74474e-12 0 0)
(-9.1011e-12 0 0)
(-8.43463e-12 0 0)
(-7.15599e-12 0 0)
(-4.49132e-12 0 0)
(-8.18918e-12 0 0)
(-7.13092e-12 0 0)
(-1.02963e-11 0 0)
(-9.08405e-12 0 0)
(-1.01749e-11 0 0)
(-1.20715e-11 0 0)
(-1.06927e-11 0 0)
(-1.11174e-11 0 0)
(-7.72498e-12 0 0)
(-9.56262e-12 0 0)
(-6.81523e-12 0 0)
(-8.90728e-12 0 0)
(-4.33826e-12 0 0)
(-8.98016e-12 0 0)
(-6.48347e-12 0 0)
(-1.1678e-11 0 0)
(-8.01243e-12 0 0)
(-1.04718e-11 0 0)
(-6.88773e-12 0 0)
(-1.21549e-11 0 0)
(-8.11708e-12 0 0)
(-8.65722e-12 0 0)
(-7.68022e-12 0 0)
(-8.36106e-12 0 0)
(-6.85044e-12 0 0)
(-1.05515e-11 0 0)
(-9.70403e-12 0 0)
(-1.1052e-11 0 0)
(-9.64687e-12 0 0)
(-9.18329e-12 0 0)
(-9.88087e-12 0 0)
(-7.79771e-12 0 0)
(-1.11542e-11 0 0)
(-1.02497e-11 0 0)
(-1.4817e-11 0 0)
(-1.42361e-11 0 0)
(-1.64179e-11 0 0)
(-1.38359e-11 0 0)
(-1.63558e-11 0 0)
(-1.55418e-11 0 0)
(-1.94959e-11 0 0)
(-1.77244e-11 0 0)
(-1.92043e-11 0 0)
(-1.4696e-11 0 0)
(-1.80706e-11 0 0)
(-1.3625e-11 0 0)
(-1.71094e-11 0 0)
(-1.36224e-11 0 0)
(-1.4996e-11 0 0)
(-1.00752e-11 0 0)
(-1.1867e-11 0 0)
(-7.0022e-12 0 0)
(-9.97925e-12 0 0)
(-9.3075e-12 0 0)
(-9.34075e-12 0 0)
(-1.08216e-11 0 0)
(-1.08503e-11 0 0)
(-7.01459e-12 0 0)
(-7.04959e-12 0 0)
(-4.62425e-12 0 0)
(1.35778e-13 0 0)
(-2.03083e-12 0 0)
(9.20729e-13 0 0)
(-1.86052e-12 0 0)
(2.558e-12 0 0)
(-1.52746e-12 0 0)
(1.92733e-12 0 0)
(-2.25192e-14 0 0)
(5.31371e-12 0 0)
(1.46836e-12 0 0)
(5.86138e-12 0 0)
(4.9303e-12 0 0)
(6.24794e-12 0 0)
(6.6356e-12 0 0)
(1.02073e-11 0 0)
(9.65317e-12 0 0)
(1.03974e-11 0 0)
(1.05423e-11 0 0)
(8.06304e-12 0 0)
(7.77618e-12 0 0)
(4.87332e-12 0 0)
(7.61136e-12 0 0)
(7.9505e-12 0 0)
(8.86991e-12 0 0)
(1.20664e-11 0 0)
(1.06198e-11 0 0)
(1.09399e-11 0 0)
(1.01224e-11 0 0)
(9.99826e-12 0 0)
(1.3067e-11 0 0)
(1.258e-11 0 0)
(1.19159e-11 0 0)
(1.14075e-11 0 0)
(1.18621e-11 0 0)
(1.37276e-11 0 0)
(1.54772e-11 0 0)
(1.59332e-11 0 0)
(1.20974e-11 0 0)
(1.15695e-11 0 0)
(1.03267e-11 0 0)
(8.55523e-12 0 0)
(8.32436e-12 0 0)
(1.34142e-11 0 0)
(9.08919e-12 0 0)
(1.10034e-11 0 0)
(1.04152e-11 0 0)
(1.18826e-11 0 0)
(1.42709e-11 0 0)
(1.41948e-11 0 0)
(1.69564e-11 0 0)
(1.62814e-11 0 0)
(1.47335e-11 0 0)
(1.53552e-11 0 0)
(1.51212e-11 0 0)
(1.3554e-11 0 0)
(1.40811e-11 0 0)
(1.31178e-11 0 0)
(1.06831e-11 0 0)
(1.31056e-11 0 0)
(1.40598e-11 0 0)
(1.65999e-11 0 0)
(1.73285e-11 0 0)
(1.36852e-11 0 0)
(1.46488e-11 0 0)
(1.24964e-11 0 0)
(1.17804e-11 0 0)
(8.39972e-12 0 0)
(1.03393e-11 0 0)
(6.69123e-12 0 0)
(9.13864e-12 0 0)
(8.62892e-12 0 0)
(1.01523e-11 0 0)
(1.02674e-11 0 0)
(1.04595e-11 0 0)
(1.2799e-11 0 0)
(1.36685e-11 0 0)
(1.34964e-11 0 0)
(1.20844e-11 0 0)
(1.05964e-11 0 0)
(8.51868e-12 0 0)
(9.31458e-12 0 0)
(8.62498e-12 0 0)
(6.19523e-12 0 0)
(8.65905e-12 0 0)
(9.2373e-12 0 0)
(8.30723e-12 0 0)
(8.13155e-12 0 0)
(7.99941e-12 0 0)
(8.11596e-12 0 0)
(6.05209e-12 0 0)
(7.86329e-12 0 0)
(6.29396e-12 0 0)
(7.43467e-12 0 0)
(3.13188e-12 0 0)
(7.02632e-12 0 0)
(6.34057e-12 0 0)
(9.2192e-12 0 0)
(9.79222e-12 0 0)
(1.12109e-11 0 0)
(1.26947e-11 0 0)
(1.32966e-11 0 0)
(9.93187e-12 0 0)
(1.11538e-11 0 0)
(8.94977e-12 0 0)
(8.26068e-12 0 0)
(1.02868e-11 0 0)
(8.79127e-12 0 0)
(1.01361e-11 0 0)
(6.87031e-12 0 0)
(1.02327e-11 0 0)
(7.27875e-12 0 0)
(9.20495e-12 0 0)
(7.36194e-12 0 0)
(1.27663e-11 0 0)
(8.22291e-12 0 0)
(1.19558e-11 0 0)
(6.98546e-12 0 0)
(1.07059e-11 0 0)
(1.04525e-11 0 0)
(1.31184e-11 0 0)
(9.92183e-12 0 0)
(9.97442e-12 0 0)
(8.04867e-12 0 0)
(7.64262e-12 0 0)
(9.4146e-12 0 0)
(1.21872e-11 0 0)
(1.20295e-11 0 0)
(9.63102e-12 0 0)
(1.13496e-11 0 0)
(7.95433e-12 0 0)
(1.05571e-11 0 0)
(4.24818e-12 0 0)
(7.27948e-12 0 0)
(4.46752e-12 0 0)
(7.05461e-12 0 0)
(6.13044e-12 0 0)
(1.08962e-11 0 0)
(5.65273e-12 0 0)
(1.02538e-11 0 0)
(4.81318e-12 0 0)
(7.16703e-12 0 0)
(2.69443e-12 0 0)
(7.9909e-12 0 0)
(6.05848e-12 0 0)
(8.98464e-12 0 0)
(7.78159e-12 0 0)
(1.1266e-11 0 0)
(1.13711e-11 0 0)
(8.64301e-12 0 0)
(1.03432e-11 0 0)
(6.68909e-12 0 0)
(9.5438e-12 0 0)
(7.37184e-12 0 0)
(1.03681e-11 0 0)
(5.7148e-12 0 0)
(1.04325e-11 0 0)
(7.61129e-12 0 0)
(1.08179e-11 0 0)
(7.61997e-12 0 0)
(1.04425e-11 0 0)
(6.99499e-12 0 0)
(9.57407e-12 0 0)
(7.3905e-12 0 0)
(7.73291e-12 0 0)
(5.73434e-12 0 0)
(9.69742e-12 0 0)
(7.07441e-12 0 0)
(9.80091e-12 0 0)
(7.35856e-12 0 0)
(8.99366e-12 0 0)
(8.0417e-12 0 0)
(8.07958e-12 0 0)
(7.34468e-12 0 0)
(6.74191e-12 0 0)
(4.99447e-12 0 0)
(8.92234e-12 0 0)
(8.66587e-12 0 0)
(8.49734e-12 0 0)
(6.62695e-12 0 0)
(6.82302e-12 0 0)
(5.25589e-12 0 0)
(4.74473e-12 0 0)
(6.99534e-12 0 0)
(4.50385e-12 0 0)
(7.97891e-12 0 0)
(9.72552e-12 0 0)
(1.38938e-11 0 0)
(2.01844e-11 0 0)
(3.36889e-11 0 0)
(6.50828e-11 0 0)
(1.38851e-10 0 0)
(2.94487e-10 0 0)
(6.3795e-10 0 0)
(1.35519e-09 0 0)
(2.86445e-09 0 0)
(5.9865e-09 0 0)
(1.24183e-08 0 0)
(2.55263e-08 0 0)
(5.203e-08 0 0)
(1.05132e-07 0 0)
(2.10598e-07 0 0)
(4.18171e-07 0 0)
(8.22967e-07 0 0)
(1.60502e-06 0 0)
(3.1016e-06 0 0)
(5.93783e-06 0 0)
(1.126e-05 0 0)
(2.11464e-05 0 0)
(3.9323e-05 0 0)
(7.23908e-05 0 0)
(0.000131904 0 0)
(0.000237834 0 0)
(0.000424262 0 0)
(0.000748566 0 0)
(0.00130602 0 0)
(0.00225253 0 0)
(0.0038394 0 0)
(0.00646529 0 0)
(0.0107521 0 0)
(0.0176531 0 0)
(0.0286016 0 0)
(0.0457102 0 0)
(0.0720253 0 0)
(0.111836 0 0)
(0.171028 0 0)
(0.257444 0 0)
(0.381198 0 0)
(0.554854 0 0)
(0.793333 0 0)
(1.11339 0 0)
(1.53245 0 0)
(2.06647 0 0)
(2.72625 0 0)
(3.51228 0 0)
(4.41445 0 0)
(5.41945 0 0)
(6.51636 0 0)
(7.69617 0 0)
(8.95035 0 0)
(10.2705 0 0)
(11.6484 0 0)
(13.0768 0 0)
(14.5486 0 0)
(16.0581 0 0)
(17.6 0 0)
(19.1699 0 0)
(20.7641 0 0)
(22.3794 0 0)
(24.0133 0 0)
(25.6633 0 0)
(27.3278 0 0)
(29.0049 0 0)
(30.6934 0 0)
(32.3921 0 0)
(34.1 0 0)
(35.8162 0 0)
(37.5398 0 0)
(39.2703 0 0)
(41.0071 0 0)
(42.7496 0 0)
(44.4973 0 0)
(46.2499 0 0)
(48.0069 0 0)
(49.768 0 0)
(51.5329 0 0)
(53.3013 0 0)
(55.073 0 0)
(56.8476 0 0)
(58.625 0 0)
(60.405 0 0)
(62.1873 0 0)
(63.9718 0 0)
(65.7583 0 0)
(67.5467 0 0)
(69.3368 0 0)
(71.1284 0 0)
(72.9214 0 0)
(74.7156 0 0)
(76.511 0 0)
(78.3074 0 0)
(80.1047 0 0)
(81.9027 0 0)
(83.7013 0 0)
(85.5005 0 0)
(87.3 0 0)
(89.0998 0 0)
(90.8998 0 0)
(92.6997 0 0)
(94.4997 0 0)
(96.2994 0 0)
(98.0988 0 0)
(99.8977 0 0)
(101.696 0 0)
(103.494 0 0)
(105.291 0 0)
(107.087 0 0)
(108.882 0 0)
(110.675 0 0)
(112.467 0 0)
(114.258 0 0)
(116.047 0 0)
(117.834 0 0)
(119.62 0 0)
(121.403 0 0)
(123.183 0 0)
(124.961 0 0)
(126.737 0 0)
(128.509 0 0)
(130.278 0 0)
(132.044 0 0)
(133.806 0 0)
(135.564 0 0)
(137.317 0 0)
(139.066 0 0)
(140.811 0 0)
(142.549 0 0)
(144.283 0 0)
(146.01 0 0)
(147.73 0 0)
(149.444 0 0)
(151.15 0 0)
(152.848 0 0)
(154.538 0 0)
(156.218 0 0)
(157.888 0 0)
(159.548 0 0)
(161.196 0 0)
(162.832 0 0)
(164.454 0 0)
(166.062 0 0)
(167.655 0 0)
(169.231 0 0)
(170.789 0 0)
(172.328 0 0)
(173.846 0 0)
(175.341 0 0)
(176.811 0 0)
(178.256 0 0)
(179.672 0 0)
(181.057 0 0)
(182.409 0 0)
(183.725 0 0)
(185.003 0 0)
(186.238 0 0)
(187.431 0 0)
(188.574 0 0)
(189.667 0 0)
(190.706 0 0)
(191.687 0 0)
(192.608 0 0)
(193.466 0 0)
(194.257 0 0)
(194.981 0 0)
(195.634 0 0)
(196.217 0 0)
(196.731 0 0)
(197.174 0 0)
(197.551 0 0)
(197.865 0 0)
(198.119 0 0)
(198.319 0 0)
(198.471 0 0)
(198.581 0 0)
(198.657 0 0)
(198.704 0 0)
(198.729 0 0)
(198.74 0 0)
(198.743 0 0)
(198.743 0 0)
(198.742 0 0)
(198.738 0 0)
(198.73 0 0)
(198.715 0 0)
(198.693 0 0)
(198.67 0 0)
(198.65 0 0)
(198.632 0 0)
(198.619 0 0)
(198.609 0 0)
(198.602 0 0)
(198.597 0 0)
(198.594 0 0)
(198.592 0 0)
(198.59 0 0)
(198.589 0 0)
(198.588 0 0)
(198.588 0 0)
(198.587 0 0)
(198.586 0 0)
(198.585 0 0)
(198.584 0 0)
(198.583 0 0)
(198.582 0 0)
(198.582 0 0)
(198.581 0 0)
(198.58 0 0)
(198.58 0 0)
(198.579 0 0)
(198.578 0 0)
(198.577 0 0)
(198.577 0 0)
(198.576 0 0)
(198.576 0 0)
(198.575 0 0)
(198.575 0 0)
(198.574 0 0)
(198.573 0 0)
(198.573 0 0)
(198.572 0 0)
(198.571 0 0)
(198.571 0 0)
(198.57 0 0)
(198.57 0 0)
(198.569 0 0)
(198.569 0 0)
(198.568 0 0)
(198.567 0 0)
(198.567 0 0)
(198.566 0 0)
(198.566 0 0)
(198.565 0 0)
(198.565 0 0)
(198.564 0 0)
(198.564 0 0)
(198.564 0 0)
(198.563 0 0)
(198.563 0 0)
(198.562 0 0)
(198.561 0 0)
(198.561 0 0)
(198.56 0 0)
(198.559 0 0)
(198.559 0 0)
(198.558 0 0)
(198.557 0 0)
(198.557 0 0)
(198.556 0 0)
(198.555 0 0)
(198.555 0 0)
(198.554 0 0)
(198.554 0 0)
(198.553 0 0)
(198.552 0 0)
(198.552 0 0)
(198.551 0 0)
(198.551 0 0)
(198.551 0 0)
(198.55 0 0)
(198.55 0 0)
(198.55 0 0)
(198.549 0 0)
(198.547 0 0)
(198.546 0 0)
(198.546 0 0)
(198.547 0 0)
(198.546 0 0)
(198.546 0 0)
(198.546 0 0)
(198.546 0 0)
(198.545 0 0)
(198.545 0 0)
(198.545 0 0)
(198.545 0 0)
(198.544 0 0)
(198.544 0 0)
(198.544 0 0)
(198.543 0 0)
(198.543 0 0)
(198.543 0 0)
(198.543 0 0)
(198.543 0 0)
(198.542 0 0)
(198.542 0 0)
(198.542 0 0)
(198.542 0 0)
(198.541 0 0)
(198.541 0 0)
(198.541 0 0)
(198.541 0 0)
(198.541 0 0)
(198.541 0 0)
(198.541 0 0)
(198.541 0 0)
(198.54 0 0)
(198.54 0 0)
(198.541 0 0)
(198.54 0 0)
(198.54 0 0)
(198.54 0 0)
(198.54 0 0)
(198.541 0 0)
(198.54 0 0)
(198.54 0 0)
(198.543 0 0)
(198.552 0 0)
(198.565 0 0)
(198.597 0 0)
(198.684 0 0)
(198.848 0 0)
(198.873 0 0)
(198.704 0 0)
(198.558 0 0)
(198.491 0 0)
(198.488 0 0)
(198.493 0 0)
(198.485 0 0)
(198.489 0 0)
(198.521 0 0)
(198.545 0 0)
(198.532 0 0)
(198.511 0 0)
(198.523 0 0)
(198.552 0 0)
(198.548 0 0)
(198.519 0 0)
(198.512 0 0)
(198.541 0 0)
(198.558 0 0)
(198.532 0 0)
(198.505 0 0)
(198.52 0 0)
(198.55 0 0)
(198.539 0 0)
(198.504 0 0)
(198.502 0 0)
(198.535 0 0)
(198.544 0 0)
(198.513 0 0)
(198.494 0 0)
(198.521 0 0)
(198.549 0 0)
(198.528 0 0)
(198.493 0 0)
(198.503 0 0)
(198.542 0 0)
(198.544 0 0)
(198.506 0 0)
(198.49 0 0)
(198.521 0 0)
(198.548 0 0)
(198.523 0 0)
(198.489 0 0)
(198.503 0 0)
(198.539 0 0)
(198.536 0 0)
(198.499 0 0)
(198.489 0 0)
(198.523 0 0)
(198.544 0 0)
(198.514 0 0)
(198.483 0 0)
(198.504 0 0)
(198.54 0 0)
(198.529 0 0)
(198.488 0 0)
(198.485 0 0)
(198.523 0 0)
(198.539 0 0)
(198.505 0 0)
(198.477 0 0)
(198.502 0 0)
(198.536 0 0)
(198.52 0 0)
(198.48 0 0)
(198.482 0 0)
(198.522 0 0)
(198.531 0 0)
(198.493 0 0)
(198.467 0 0)
(198.496 0 0)
(198.53 0 0)
(198.51 0 0)
(198.468 0 0)
(198.472 0 0)
(198.51 0 0)
(198.517 0 0)
(198.477 0 0)
(198.454 0 0)
(198.486 0 0)
(198.515 0 0)
(198.485 0 0)
(198.442 0 0)
(198.454 0 0)
(198.495 0 0)
(198.492 0 0)
(198.444 0 0)
(198.423 0 0)
(198.455 0 0)
(198.482 0 0)
(198.451 0 0)
(198.405 0 0)
(198.411 0 0)
(198.446 0 0)
(198.441 0 0)
(198.392 0 0)
(198.37 0 0)
(198.398 0 0)
(198.415 0 0)
(198.372 0 0)
(198.325 0 0)
(198.335 0 0)
(198.366 0 0)
(198.341 0 0)
(198.279 0 0)
(198.258 0 0)
(198.285 0 0)
(198.287 0 0)
(198.227 0 0)
(198.173 0 0)
(198.176 0 0)
(198.193 0 0)
(198.152 0 0)
(198.079 0 0)
(198.046 0 0)
(198.053 0 0)
(198.034 0 0)
(197.959 0 0)
(197.891 0 0)
(197.871 0 0)
(197.858 0 0)
(197.791 0 0)
(197.697 0 0)
(197.638 0 0)
(197.609 0 0)
(197.554 0 0)
(197.442 0 0)
(197.338 0 0)
(197.274 0 0)
(197.216 0 0)
(197.092 0 0)
(196.929 0 0)
(196.808 0 0)
(196.721 0 0)
(196.591 0 0)
(196.369 0 0)
(196.156 0 0)
(196.011 0 0)
(195.87 0 0)
(195.594 0 0)
(195.243 0 0)
(194.973 0 0)
(194.774 0 0)
(194.443 0 0)
(193.885 0 0)
(193.371 0 0)
(193.044 0 0)
(192.637 0 0)
(191.584 0 0)
(189.923 0 0)
(187.335 0 0)
(181.658 0 0)
(163.992 0 0)
(110.165 0 0)
(40.895 0 0)
(10.8198 0 0)
(2.66997 0 0)
(0.63871 0 0)
(0.151374 0 0)
(0.035787 0 0)
(0.00845594 0 0)
(0.00199792 0 0)
(0.00047205 0 0)
(0.00011153 0 0)
(2.63498e-05 0 0)
(6.22509e-06 0 0)
(1.47061e-06 0 0)
(3.474e-07 0 0)
(8.2061e-08 0 0)
(1.93788e-08 0 0)
(4.57457e-09 0 0)
(1.07396e-09 0 0)
(2.51597e-10 0 0)
(5.59621e-11 0 0)
(1.13943e-11 0 0)
(-2.14015e-12 0 0)
(-5.47793e-12 0 0)
(-7.55926e-12 0 0)
(-4.69226e-12 0 0)
(-5.40016e-12 0 0)
(-4.26112e-12 0 0)
(-4.79203e-12 0 0)
(-4.34875e-12 0 0)
(-5.20466e-12 0 0)
(-6.89317e-12 0 0)
(-3.982e-12 0 0)
(-3.172e-12 0 0)
(7.43341e-13 0 0)
(-2.85788e-12 0 0)
(-2.14627e-12 0 0)
(-7.44684e-13 0 0)
(1.17129e-13 0 0)
(4.12571e-13 0 0)
(2.48356e-12 0 0)
(-1.41263e-12 0 0)
(4.41551e-13 0 0)
(-2.30602e-12 0 0)
(-3.25572e-13 0 0)
(-3.60168e-12 0 0)
(-4.18218e-12 0 0)
(-6.88039e-12 0 0)
(-3.69608e-12 0 0)
(-5.55326e-12 0 0)
(-4.7968e-12 0 0)
(-7.37573e-12 0 0)
(-5.90407e-12 0 0)
(-7.96033e-12 0 0)
(-8.12195e-12 0 0)
(-6.39303e-12 0 0)
(-8.53866e-12 0 0)
(-5.52954e-12 0 0)
(-8.7037e-12 0 0)
(-4.6965e-12 0 0)
(-7.97777e-12 0 0)
(-3.73153e-12 0 0)
(-5.8639e-12 0 0)
(-2.78507e-12 0 0)
(-1.71786e-12 0 0)
(5.69037e-13 0 0)
(1.643e-12 0 0)
(3.16762e-12 0 0)
(3.42839e-13 0 0)
(5.14442e-12 0 0)
(7.38912e-13 0 0)
(1.30029e-12 0 0)
(-2.23126e-12 0 0)
(8.31844e-13 0 0)
(7.27237e-13 0 0)
(4.23366e-12 0 0)
(3.96647e-12 0 0)
(5.48058e-12 0 0)
(5.49339e-12 0 0)
(6.59392e-12 0 0)
(7.21681e-12 0 0)
(6.70113e-12 0 0)
(8.3559e-12 0 0)
(7.46629e-12 0 0)
(7.46272e-12 0 0)
(1.01218e-11 0 0)
(9.79118e-12 0 0)
(8.19713e-12 0 0)
(7.92825e-12 0 0)
(7.05647e-12 0 0)
(7.22922e-12 0 0)
(5.54403e-12 0 0)
(5.74737e-12 0 0)
(6.76088e-12 0 0)
(8.46158e-12 0 0)
(1.04567e-11 0 0)
(9.48625e-12 0 0)
(1.01817e-11 0 0)
(9.8114e-12 0 0)
(6.92033e-12 0 0)
(6.55165e-12 0 0)
(4.3904e-12 0 0)
(4.62067e-12 0 0)
(1.93448e-12 0 0)
(3.74668e-12 0 0)
(4.95663e-12 0 0)
(6.29028e-12 0 0)
(5.92833e-12 0 0)
(5.56577e-12 0 0)
(3.82616e-12 0 0)
(3.23343e-12 0 0)
(-1.30961e-12 0 0)
(7.34881e-13 0 0)
(2.28138e-12 0 0)
(1.95741e-12 0 0)
(3.74473e-12 0 0)
(5.64293e-12 0 0)
(3.80282e-12 0 0)
(3.93615e-12 0 0)
(1.16685e-12 0 0)
(1.95904e-12 0 0)
(9.10074e-13 0 0)
(9.48583e-13 0 0)
(3.48881e-12 0 0)
(3.74453e-12 0 0)
(2.84978e-12 0 0)
(1.48076e-12 0 0)
(3.86699e-12 0 0)
(4.37911e-12 0 0)
(7.61399e-12 0 0)
(6.93956e-12 0 0)
(8.55114e-12 0 0)
(9.99452e-12 0 0)
(1.04777e-11 0 0)
(8.27657e-12 0 0)
(9.32659e-12 0 0)
(5.15055e-12 0 0)
(5.01006e-12 0 0)
(5.11021e-12 0 0)
(4.34887e-12 0 0)
(5.73328e-12 0 0)
(1.58995e-12 0 0)
(3.1562e-12 0 0)
(2.76213e-12 0 0)
(2.96699e-12 0 0)
(4.44442e-12 0 0)
(5.10883e-12 0 0)
(4.30601e-12 0 0)
(5.58605e-12 0 0)
(7.76803e-12 0 0)
(6.92602e-12 0 0)
(6.58146e-12 0 0)
(5.6351e-12 0 0)
(3.99436e-12 0 0)
(2.49863e-12 0 0)
(2.01329e-12 0 0)
(1.1316e-12 0 0)
(1.38052e-13 0 0)
(6.34817e-15 0 0)
(-1.98723e-12 0 0)
(1.31893e-12 0 0)
(-2.11829e-12 0 0)
(7.55948e-13 0 0)
(1.71345e-12 0 0)
(-9.08803e-13 0 0)
(3.91389e-12 0 0)
(2.34809e-12 0 0)
(1.03598e-12 0 0)
(6.55828e-12 0 0)
(4.59889e-12 0 0)
(5.83542e-12 0 0)
(5.16966e-12 0 0)
(9.05962e-12 0 0)
(8.55707e-12 0 0)
(1.047e-11 0 0)
(6.18335e-12 0 0)
(7.51693e-12 0 0)
(7.80781e-12 0 0)
(7.51321e-12 0 0)
(8.56589e-12 0 0)
(8.57327e-12 0 0)
(8.99829e-12 0 0)
(7.08449e-12 0 0)
(1.13797e-11 0 0)
(1.13759e-11 0 0)
(1.17644e-11 0 0)
(1.04349e-11 0 0)
(1.20969e-11 0 0)
(1.35434e-11 0 0)
(1.56847e-11 0 0)
(1.51561e-11 0 0)
(2.03407e-11 0 0)
(2.01132e-11 0 0)
(2.37094e-11 0 0)
(2.41941e-11 0 0)
(2.40701e-11 0 0)
(2.42856e-11 0 0)
(2.47439e-11 0 0)
(2.42213e-11 0 0)
(2.26114e-11 0 0)
(2.28698e-11 0 0)
(2.41314e-11 0 0)
(2.31855e-11 0 0)
(2.19559e-11 0 0)
(2.16283e-11 0 0)
(2.12103e-11 0 0)
(1.99865e-11 0 0)
(2.19082e-11 0 0)
(2.34374e-11 0 0)
(2.56883e-11 0 0)
(2.18452e-11 0 0)
(2.22045e-11 0 0)
(2.00191e-11 0 0)
(2.34705e-11 0 0)
(2.21501e-11 0 0)
(2.16085e-11 0 0)
(2.09745e-11 0 0)
(2.26749e-11 0 0)
(2.14229e-11 0 0)
(2.13056e-11 0 0)
(2.18709e-11 0 0)
(2.40492e-11 0 0)
(2.58916e-11 0 0)
(2.63119e-11 0 0)
(2.74048e-11 0 0)
(2.64031e-11 0 0)
(2.75284e-11 0 0)
(2.88744e-11 0 0)
(2.95375e-11 0 0)
(3.01169e-11 0 0)
(3.25062e-11 0 0)
(3.18081e-11 0 0)
(3.40785e-11 0 0)
(3.27446e-11 0 0)
(3.51746e-11 0 0)
(3.34461e-11 0 0)
(3.41334e-11 0 0)
(3.29606e-11 0 0)
(3.41672e-11 0 0)
(3.04528e-11 0 0)
(3.20879e-11 0 0)
(3.18597e-11 0 0)
(3.16183e-11 0 0)
(3.12438e-11 0 0)
(2.93285e-11 0 0)
(2.72195e-11 0 0)
(2.59844e-11 0 0)
(2.62568e-11 0 0)
(2.4309e-11 0 0)
(2.26246e-11 0 0)
(2.112e-11 0 0)
(2.28768e-11 0 0)
(2.18844e-11 0 0)
(2.09851e-11 0 0)
(2.09162e-11 0 0)
(2.30471e-11 0 0)
(1.91254e-11 0 0)
(2.32302e-11 0 0)
(1.94275e-11 0 0)
(2.33513e-11 0 0)
(2.07844e-11 0 0)
(2.38914e-11 0 0)
(2.29353e-11 0 0)
)
;

boundaryField
{
    sides
    {
        type            zeroGradient;
    }
    empty
    {
        type            empty;
    }
}


// ************************************************************************* //
