/*--------------------------------*- C++ -*----------------------------------*\
| =========                 |                                                 |
| \\      /  F ield         | OpenFOAM: The Open Source CFD Toolbox           |
|  \\    /   O peration     | Version:  4.1                                   |
|   \\  /    A nd           | Web:      www.OpenFOAM.org                      |
|    \\/     M anipulation  |                                                 |
\*---------------------------------------------------------------------------*/
FoamFile
{
    version     2.0;
    format      ascii;
    class       volScalarField;
    location    "0.002";
    object      mag(U);
}
// * * * * * * * * * * * * * * * * * * * * * * * * * * * * * * * * * * * * * //

dimensions      [0 1 -1 0 0 0 0];

internalField   nonuniform List<scalar> 
1000
(
1.17458e-11
1.15038e-11
1.37469e-11
1.0854e-11
9.98455e-12
1.19214e-11
1.24762e-11
1.51898e-11
1.37877e-11
1.47275e-11
1.31265e-11
1.5584e-11
1.5735e-11
1.64872e-11
1.45381e-11
1.64848e-11
1.29888e-11
1.29539e-11
1.13085e-11
1.2531e-11
1.00429e-11
1.27311e-11
1.16977e-11
1.20214e-11
8.54208e-12
1.02705e-11
6.78007e-12
1.02446e-11
8.05343e-12
9.2329e-12
8.94908e-12
7.2793e-12
4.45901e-12
3.40219e-12
7.73032e-12
4.24157e-12
6.20371e-12
2.98846e-12
6.46079e-12
3.89224e-12
3.64121e-12
3.93387e-13
4.08872e-12
1.38904e-12
3.71319e-12
8.64614e-14
1.4401e-12
5.14634e-13
1.39507e-12
7.09617e-13
3.16833e-12
3.47295e-12
8.24601e-13
1.48114e-12
2.58873e-12
4.0849e-12
5.37164e-12
1.79026e-12
1.07521e-12
2.94655e-12
2.32208e-13
2.5751e-12
4.96268e-13
4.26707e-12
1.72762e-12
3.78107e-12
3.29757e-12
4.27412e-12
9.90216e-14
1.22375e-12
7.56547e-13
1.86021e-12
4.52906e-12
1.86159e-12
7.17208e-12
4.31084e-12
6.71248e-12
7.08409e-12
7.08394e-12
7.82939e-12
5.07472e-12
3.61339e-12
4.41209e-12
6.07636e-12
7.0044e-12
6.91137e-12
4.24923e-12
5.95967e-12
4.48902e-12
6.19126e-12
3.95064e-12
9.1013e-12
6.52696e-12
1.0026e-11
9.14689e-12
1.04643e-11
8.56718e-12
7.73853e-12
7.68516e-12
9.54213e-12
1.13515e-11
9.32827e-12
8.77076e-12
6.97395e-12
6.60228e-12
3.48399e-12
3.1736e-12
2.54691e-12
2.66636e-12
3.51458e-12
4.23983e-12
3.68216e-12
1.46936e-12
2.4173e-14
1.66874e-12
1.43099e-12
9.90495e-13
3.22494e-12
8.4634e-13
3.03694e-12
3.98922e-12
3.53027e-12
3.51195e-12
5.30938e-12
6.03729e-12
5.93515e-12
6.95629e-12
9.40398e-12
8.02063e-12
6.89369e-12
3.93812e-12
2.32409e-12
2.21123e-13
2.91397e-12
1.16362e-12
5.73884e-13
1.29452e-12
3.55816e-12
2.09383e-12
2.3386e-12
1.18624e-12
1.01082e-12
3.25219e-13
6.67081e-13
7.92871e-13
1.33647e-12
4.23013e-12
1.91802e-12
8.99995e-13
1.188e-12
3.47605e-12
3.7855e-12
5.09086e-12
3.41954e-13
9.9366e-13
2.08354e-12
2.89239e-12
2.62898e-12
6.5375e-14
2.39171e-12
8.40979e-14
2.56732e-12
3.4075e-12
6.68846e-12
7.07988e-12
5.86037e-12
4.56248e-12
3.44309e-12
1.48209e-12
2.07972e-12
1.9944e-12
1.66269e-12
9.24927e-13
4.70575e-12
4.05004e-12
6.26026e-12
5.51522e-12
4.70426e-12
3.79571e-12
7.09932e-12
4.75566e-12
3.78902e-12
1.48929e-12
3.98376e-13
1.17374e-12
5.6722e-13
9.84055e-14
1.40705e-12
1.39045e-12
1.74184e-12
6.32404e-13
3.76875e-14
1.18184e-12
1.2144e-12
5.01217e-13
7.24136e-13
4.31914e-12
4.42034e-12
8.36684e-12
6.3754e-12
9.88162e-12
5.09445e-12
6.03923e-12
1.03322e-12
2.89407e-12
3.03048e-12
3.85899e-12
5.65345e-12
4.78675e-12
7.05778e-12
6.3696e-12
6.01439e-12
5.21286e-12
5.88103e-12
3.90796e-12
5.87644e-12
1.5552e-12
4.6075e-12
4.84642e-13
3.90072e-12
8.7401e-13
2.73022e-12
5.9912e-13
5.113e-12
3.2124e-13
3.84851e-12
7.11543e-13
8.19718e-13
3.34586e-12
3.60375e-12
3.27013e-13
1.14378e-12
4.50404e-12
3.61129e-12
4.77678e-12
2.25651e-12
5.06802e-12
1.3166e-13
1.55341e-12
2.98209e-12
2.03807e-12
2.76824e-12
2.75481e-12
3.20989e-12
2.82691e-12
7.80903e-13
1.30322e-12
2.03347e-13
1.28699e-12
1.95518e-12
1.84633e-12
2.01032e-12
6.30746e-14
2.27213e-12
5.37628e-13
1.4471e-12
4.15078e-13
2.95256e-12
1.65747e-12
3.11538e-12
6.36294e-13
2.73849e-12
1.67889e-13
9.63385e-13
1.09525e-12
2.52182e-12
5.99911e-13
1.96661e-12
2.50661e-12
4.29841e-12
1.76135e-12
1.85767e-13
3.42083e-13
3.88446e-12
1.57902e-12
1.03782e-13
5.0589e-13
1.68566e-12
4.82836e-12
6.61965e-13
3.07202e-13
3.70305e-12
1.93736e-12
2.80348e-12
5.30394e-12
6.76299e-12
5.32513e-12
6.28879e-12
5.15085e-12
5.54795e-12
5.45093e-12
3.95222e-12
2.80327e-12
4.02244e-12
4.20544e-12
5.12661e-12
3.2403e-12
5.89187e-12
4.01434e-12
7.38507e-13
4.50905e-12
3.35038e-12
7.01098e-12
5.18832e-12
6.31946e-12
2.86092e-12
4.28837e-12
2.85194e-12
1.69283e-12
5.52302e-13
1.74653e-12
2.97139e-12
7.28862e-14
1.95406e-12
4.47237e-14
2.31696e-12
4.06939e-13
1.2996e-12
1.83201e-12
8.74507e-13
2.34711e-12
4.30383e-13
9.45447e-13
1.31072e-14
5.4427e-13
2.30419e-12
9.99819e-13
2.54888e-12
2.52339e-12
5.2087e-13
1.10172e-12
7.31631e-13
3.84193e-12
2.08e-12
1.08892e-12
8.81376e-13
8.7142e-13
6.05133e-13
1.99243e-13
1.0292e-12
7.44328e-13
4.65181e-12
9.72961e-13
9.9505e-13
3.45926e-12
1.22462e-12
5.20533e-13
3.33104e-13
1.60439e-12
3.5492e-12
9.13397e-13
2.05784e-13
1.87001e-12
2.03338e-12
1.38407e-12
2.18705e-12
1.89986e-12
1.96345e-13
1.37427e-12
6.50006e-13
1.11379e-12
2.02716e-12
6.50359e-13
1.47111e-12
5.37198e-13
1.58804e-12
2.51789e-12
9.61393e-13
3.13495e-12
2.31952e-12
3.70247e-12
1.34786e-12
2.03515e-12
3.3189e-12
1.5492e-12
1.75122e-12
2.87314e-12
2.24767e-12
2.8919e-12
5.03037e-12
1.31449e-11
4.38314e-11
1.17645e-10
3.25677e-10
8.73235e-10
2.30724e-09
5.99515e-09
1.5363e-08
3.883e-08
9.68073e-08
2.38045e-07
5.77182e-07
1.37959e-06
3.24968e-06
7.54119e-06
1.72344e-05
3.87745e-05
8.58459e-05
0.000186953
0.000400299
0.000842296
0.00174077
0.00353156
0.00702855
0.0137132
0.0262096
0.0490301
0.0896897
0.160269
0.279436
0.474768
0.78491
1.26062
1.96309
2.95643
4.28762
5.95969
7.94138
10.2011
12.7117
15.4428
18.3618
21.4375
24.6417
27.9508
31.3451
34.809
38.3302
41.8985
45.506
49.1464
52.8143
56.5052
60.2154
63.9418
67.6814
71.4317
75.1904
78.9555
82.7249
86.4967
90.2691
94.0403
97.8085
101.572
105.328
109.076
112.813
116.537
120.246
123.937
127.607
131.254
134.874
138.464
142.02
145.538
149.012
152.439
155.81
159.122
162.366
165.536
168.62
171.616
174.503
177.282
179.933
182.446
184.816
187.017
189.048
190.895
192.543
193.992
195.234
196.267
197.101
197.748
198.224
198.544
198.746
198.86
198.904
198.912
198.909
198.904
198.893
198.867
198.815
198.753
198.701
198.66
198.629
198.609
198.597
198.589
198.583
198.581
198.58
198.58
198.579
198.579
198.578
198.576
198.575
198.573
198.571
198.57
198.568
198.565
198.564
198.562
198.56
198.559
198.559
198.558
198.556
198.555
198.554
198.552
198.551
198.549
198.547
198.545
198.545
198.545
198.543
198.539
198.537
198.537
198.536
198.542
198.563
198.604
198.71
198.941
199.016
198.817
198.615
198.48
198.436
198.468
198.502
198.496
198.476
198.492
198.527
198.523
198.483
198.471
198.502
198.517
198.48
198.442
198.459
198.497
198.489
198.442
198.421
198.451
198.472
198.435
198.386
198.392
198.427
198.412
198.351
198.318
198.339
198.35
198.297
198.234
198.226
198.24
198.203
198.124
198.071
198.063
198.047
197.967
197.872
197.819
197.791
197.724
197.598
197.484
197.407
197.331
197.183
196.992
196.842
196.732
196.564
196.275
195.983
195.769
195.57
195.165
194.598
194.143
193.837
193.311
192.107
190.268
187.199
179.728
153.543
89.4053
28.2556
7.31951
1.77653
0.421804
0.0994745
0.0234172
0.00550996
0.00129633
0.00030496
7.17344e-05
1.68718e-05
3.96773e-06
9.32974e-07
2.19353e-07
5.15658e-08
1.21202e-08
2.85002e-09
6.70507e-10
1.57548e-10
3.5992e-11
7.54263e-12
3.7836e-12
7.46558e-14
1.28719e-12
4.04298e-12
2.50423e-12
1.92897e-12
2.2133e-12
1.83047e-12
1.20962e-12
1.78395e-12
1.1332e-12
1.79428e-12
2.89963e-12
2.40109e-12
2.48591e-12
2.05677e-12
2.76729e-13
1.1236e-12
1.61327e-13
1.10222e-13
8.09485e-13
1.2447e-12
1.20213e-12
2.75184e-12
2.10431e-12
2.15278e-12
3.4224e-12
2.07736e-12
1.45371e-12
2.61941e-13
1.79123e-13
7.3534e-13
1.48334e-12
5.84997e-13
2.1156e-12
1.0473e-12
2.08753e-12
1.17331e-12
2.09688e-12
6.66712e-13
1.28403e-12
2.63051e-13
6.27689e-13
2.64694e-13
1.10603e-12
7.20838e-13
2.70385e-13
2.80921e-14
8.70885e-13
1.30907e-12
1.06495e-12
8.83936e-13
1.22332e-12
2.0567e-13
3.4885e-12
2.03164e-12
2.44957e-12
2.52789e-12
1.0953e-13
4.63736e-12
2.7477e-13
9.14402e-13
2.30749e-12
1.21879e-12
2.04103e-12
1.29224e-12
2.71613e-12
3.10454e-12
2.93159e-12
1.0148e-12
2.92834e-12
2.33692e-12
5.71306e-13
1.92071e-12
1.01646e-12
2.18363e-12
3.31855e-13
3.95495e-13
6.59819e-13
2.8058e-12
5.21458e-12
3.83312e-12
3.17889e-12
1.31443e-12
2.90641e-12
6.25708e-13
3.62155e-13
4.09954e-13
1.55057e-12
3.35392e-12
4.55061e-12
5.51162e-12
4.50063e-12
3.25933e-12
4.90345e-12
5.83645e-12
2.61565e-12
2.4802e-12
3.67758e-12
5.89337e-13
2.22279e-12
2.121e-12
6.32606e-13
1.01091e-12
3.57351e-14
6.20026e-12
4.59509e-13
3.96671e-12
1.81367e-12
2.36905e-12
2.79801e-12
1.04016e-12
9.44772e-13
3.2479e-12
1.02599e-12
1.36367e-12
1.65437e-12
2.77809e-12
1.35162e-12
2.39517e-13
1.59364e-12
1.95335e-12
1.40696e-12
5.18685e-12
1.75609e-12
2.76376e-12
1.52056e-12
1.67612e-12
2.06993e-12
8.9248e-14
3.52598e-12
2.28513e-12
1.32059e-12
2.04297e-12
1.14578e-13
4.11834e-12
2.3539e-12
3.88389e-12
1.8112e-12
8.30022e-13
1.51513e-12
3.28046e-12
4.89987e-12
4.00824e-12
5.15593e-12
3.21857e-12
1.21874e-12
6.59728e-13
1.44583e-12
4.33438e-13
1.17177e-12
2.88288e-12
8.94494e-13
2.21234e-12
9.42205e-13
2.61644e-12
2.28696e-13
2.42933e-13
3.23576e-12
2.22109e-14
6.57137e-13
3.26767e-12
2.24301e-12
7.84157e-14
8.26842e-15
3.29881e-12
2.08122e-12
4.11072e-13
1.69067e-12
7.41821e-13
7.46998e-13
2.30863e-12
1.65164e-12
1.70603e-12
5.56097e-12
5.10787e-12
6.09599e-12
5.62926e-12
6.26263e-12
4.20399e-12
4.83846e-12
3.77474e-12
1.41215e-12
2.65374e-12
1.46048e-12
2.02676e-12
7.71867e-13
1.89565e-12
2.69126e-12
1.27397e-12
1.21867e-12
5.60359e-12
1.47657e-13
2.44863e-12
8.82108e-14
1.00257e-13
8.87759e-13
1.06826e-12
1.42256e-12
9.20675e-13
1.51975e-12
4.73941e-12
2.21295e-12
4.78672e-12
4.64634e-12
4.34337e-12
9.72407e-13
2.46976e-13
1.69845e-12
1.56973e-12
3.77425e-12
1.53329e-12
8.49358e-13
1.1153e-12
1.02602e-12
2.99299e-13
4.40915e-13
1.1023e-12
1.2523e-12
5.7227e-13
1.19994e-12
1.22923e-12
1.19715e-12
2.09058e-12
5.79451e-13
3.01288e-12
2.61099e-12
1.23233e-12
2.5356e-12
2.9816e-12
4.59415e-12
5.71074e-12
5.99887e-12
5.99483e-12
5.74267e-12
5.50106e-12
3.04762e-12
5.8719e-12
4.64063e-12
2.86806e-12
1.20179e-12
1.11845e-12
6.15985e-13
8.13685e-13
5.61813e-13
3.17122e-12
3.76853e-12
1.19482e-12
8.30811e-13
3.31652e-12
5.56021e-12
4.04332e-12
6.68306e-13
2.65479e-12
2.26819e-12
6.38197e-12
2.90754e-12
3.17987e-12
2.64242e-12
3.41839e-12
3.51095e-12
2.78192e-12
1.7721e-12
3.19749e-13
1.56946e-12
6.48325e-14
6.02285e-12
2.7255e-12
5.1532e-12
2.91279e-12
2.9048e-12
3.3678e-12
2.72588e-13
2.9049e-12
8.21835e-13
6.50112e-12
6.55706e-12
7.50449e-12
6.98103e-12
5.78234e-12
6.4881e-12
4.56751e-12
3.38882e-12
4.73482e-12
3.93395e-12
4.47099e-12
4.73046e-12
3.64158e-12
3.92694e-12
3.76221e-12
1.83998e-12
3.71782e-12
4.48574e-12
5.47793e-13
3.33071e-13
3.83288e-12
9.44965e-13
2.40492e-12
2.5237e-12
2.11173e-12
8.5936e-13
2.25775e-12
3.55196e-12
2.29147e-12
3.59477e-14
2.10812e-12
3.13169e-13
2.58772e-12
8.40703e-13
1.38545e-13
2.29587e-12
1.02529e-12
1.41219e-12
1.78975e-12
2.88238e-12
3.36201e-13
1.73319e-12
1.49088e-12
1.36848e-12
7.83816e-13
7.15074e-13
1.0723e-12
3.65266e-12
2.22446e-12
6.66139e-13
1.2311e-13
3.34366e-13
3.15463e-13
8.58569e-13
4.77044e-13
4.25551e-13
1.80071e-12
3.07755e-12
1.38106e-12
1.55792e-12
2.7637e-13
1.36727e-12
8.88033e-13
1.17721e-12
3.27e-12
1.3704e-12
3.59487e-12
2.77345e-12
4.87091e-12
5.30798e-12
9.15401e-12
5.29001e-12
7.07762e-12
7.40392e-12
6.45942e-12
6.30154e-12
6.27653e-12
9.10882e-12
9.92384e-12
1.32657e-11
1.28565e-11
1.22398e-11
1.242e-11
1.44699e-11
1.5982e-11
1.36908e-11
1.26455e-11
1.38942e-11
1.2618e-11
1.46724e-11
1.23066e-11
1.70789e-11
1.52775e-11
1.54852e-11
1.39287e-11
)
;

boundaryField
{
    sides
    {
        type            calculated;
        value           nonuniform List<scalar> 2(1.39287e-11 1.17458e-11);
    }
    empty
    {
        type            empty;
    }
}


// ************************************************************************* //
