/*--------------------------------*- C++ -*----------------------------------*\
| =========                 |                                                 |
| \\      /  F ield         | OpenFOAM: The Open Source CFD Toolbox           |
|  \\    /   O peration     | Version:  4.1                                   |
|   \\  /    A nd           | Web:      www.OpenFOAM.org                      |
|    \\/     M anipulation  |                                                 |
\*---------------------------------------------------------------------------*/
FoamFile
{
    version     2.0;
    format      ascii;
    class       surfaceScalarField;
    location    "0.002";
    object      phi;
}
// * * * * * * * * * * * * * * * * * * * * * * * * * * * * * * * * * * * * * //

dimensions      [1 0 -1 0 0 0 0];

internalField   nonuniform List<scalar> 
999
(
-4.06644e-11
-4.47073e-11
-4.19291e-11
-3.66498e-11
-3.71685e-11
-4.30873e-11
-4.87717e-11
-5.01643e-11
-4.8324e-11
-5.03491e-11
-4.90417e-11
-5.40794e-11
-5.59623e-11
-5.38165e-11
-5.44205e-11
-5.20828e-11
-4.51124e-11
-4.06857e-11
-4.2867e-11
-3.78151e-11
-4.04867e-11
-4.15668e-11
-4.18581e-11
-3.52784e-11
-3.38076e-11
-2.83364e-11
-2.84075e-11
-3.34239e-11
-2.89901e-11
-3.18892e-11
-2.88694e-11
-2.08473e-11
-1.301e-11
-1.9206e-11
-2.15934e-11
-1.83817e-11
-1.56106e-11
-1.5703e-11
-1.91136e-11
-1.18945e-11
-8.37019e-12
-6.4162e-12
-5.96145e-12
-3.06954e-12
-8.51941e-12
-1.6982e-12
-2.69296e-12
4.59011e-12
6.82121e-13
-5.47118e-12
-1.35785e-11
-6.21725e-12
-5.04485e-12
-6.07514e-12
-1.20224e-11
-1.66835e-11
-1.32658e-11
-4.46221e-12
-7.40386e-12
-6.03251e-12
-4.34142e-12
-5.74829e-12
-7.61702e-12
-1.14682e-11
-8.66862e-12
-1.31521e-11
-1.24416e-11
-8.35598e-12
-2.01084e-12
-7.24754e-13
4.10694e-12
1.20153e-11
1.00542e-11
1.74154e-11
1.85594e-11
1.84173e-11
2.53024e-11
2.48548e-11
2.64464e-11
2.143e-11
1.49853e-11
1.48574e-11
1.73728e-11
2.34266e-11
2.49543e-11
1.8197e-11
1.86304e-11
1.82396e-11
1.93339e-11
1.67333e-11
2.38529e-11
2.5608e-11
3.06812e-11
3.1811e-11
3.5385e-11
3.28058e-11
2.71001e-11
2.6553e-11
3.18252e-11
3.47882e-11
3.71188e-11
3.08873e-11
2.6759e-11
2.51248e-11
1.63851e-11
1.22e-11
9.26548e-12
9.67049e-12
1.12692e-11
1.25056e-11
1.54401e-11
7.51754e-12
3.11928e-12
-2.99849e-12
-5.68434e-13
4.40536e-12
7.0699e-12
6.49436e-12
7.65965e-12
1.11342e-11
1.41256e-11
1.14184e-11
1.63425e-11
1.8396e-11
2.23892e-11
2.12168e-11
2.76472e-11
3.16902e-11
2.55511e-11
1.83533e-11
1.04521e-11
5.00933e-12
5.11591e-12
6.58673e-12
3.4035e-12
-1.55609e-12
-7.86571e-12
-9.39337e-12
-7.94387e-12
-2.30926e-12
4.49063e-12
8.59757e-13
8.73968e-13
2.59348e-12
3.58114e-12
9.49285e-12
9.77707e-12
5.91172e-12
3.46034e-12
7.02727e-12
1.40972e-11
1.48432e-11
7.62412e-12
1.37845e-12
-2.16716e-12
-8.00071e-12
-1.05871e-11
-3.85825e-12
-4.55458e-12
-4.44089e-12
-4.52616e-12
-1.01679e-11
-1.69678e-11
-2.36682e-11
-2.37392e-11
-1.72804e-11
-1.30242e-11
-9.58522e-12
1.37135e-12
6.68621e-12
6.18172e-12
4.30589e-12
1.07434e-11
1.45519e-11
1.63354e-11
2.2979e-11
1.57527e-11
1.60227e-11
1.76428e-11
2.20339e-11
1.58735e-11
8.96705e-12
2.89901e-12
-1.75504e-12
-2.38742e-12
-1.12266e-12
3.06954e-12
-2.84217e-14
-5.15143e-12
-2.10321e-12
1.00187e-12
-2.30926e-12
-3.26139e-12
-3.76588e-12
4.9738e-13
8.87468e-12
1.59588e-11
2.06413e-11
2.60698e-11
2.95657e-11
2.57145e-11
1.97176e-11
1.29461e-11
5.8904e-12
1.11129e-11
1.13047e-11
1.68967e-11
1.91562e-11
1.96749e-11
2.37321e-11
2.13092e-11
1.95755e-11
1.84741e-11
1.7927e-11
1.69535e-11
1.22853e-11
1.14966e-11
8.30624e-12
8.46967e-12
7.27596e-12
7.34701e-12
5.02354e-12
1.08571e-11
8.44125e-12
8.2494e-12
7.70228e-12
2.36611e-12
7.90124e-12
1.08145e-11
8.23519e-12
1.81899e-12
1.15392e-11
1.30527e-11
1.49498e-11
1.19229e-11
1.37064e-11
8.07887e-12
3.5385e-12
-2.97007e-12
-8.20677e-12
-8.13571e-12
-1.02318e-11
-9.72733e-12
-1.09495e-11
-3.73745e-12
3.87246e-12
2.31637e-12
2.75691e-12
5.97566e-12
6.38067e-12
-2.27374e-13
-3.70193e-12
-3.87246e-12
-2.57927e-12
-1.94689e-12
-3.23297e-12
4.16378e-12
8.27072e-12
8.91731e-12
6.08935e-12
6.22435e-12
3.90799e-12
-1.60583e-12
-4.12115e-12
-5.79092e-12
-3.63087e-12
-1.89715e-12
-9.11626e-12
-1.02389e-11
-5.52092e-12
3.21876e-12
-6.39488e-13
-8.27072e-12
-8.93152e-12
-2.63611e-12
-8.66862e-13
2.19558e-12
-5.42144e-12
-1.03739e-11
-1.39977e-12
6.14619e-12
9.8126e-12
7.74492e-12
1.41185e-11
2.04352e-11
2.28297e-11
1.90425e-11
1.94262e-11
1.80194e-11
1.92202e-11
1.69535e-11
1.14753e-11
1.21716e-11
1.49143e-11
1.4893e-11
1.57314e-11
1.59019e-11
1.61791e-11
8.91731e-12
8.64731e-12
1.31095e-11
1.91989e-11
2.12665e-11
1.89715e-11
1.70672e-11
1.16032e-11
1.3145e-11
8.41283e-12
1.5703e-12
2.4869e-12
8.86047e-12
4.38405e-12
3.59535e-12
3.2756e-12
4.69669e-12
4.10694e-12
3.31823e-12
5.74829e-12
4.25615e-12
5.7625e-12
5.46407e-12
-1.15108e-12
-1.5703e-12
1.01608e-12
5.05906e-12
5.57776e-12
6.30251e-12
8.3773e-12
3.78719e-12
-2.40163e-12
-3.82272e-12
-7.56017e-12
-9.62785e-12
-2.14584e-12
5.7554e-13
-3.58824e-12
-3.12639e-13
5.25802e-13
1.92557e-12
2.62901e-13
-8.07177e-12
-1.09921e-11
-3.03402e-12
-8.19256e-12
-7.63833e-12
-3.25429e-12
-1.37845e-12
1.97531e-12
9.67049e-12
7.19069e-12
1.86873e-12
-2.56506e-12
2.06057e-13
1.0516e-12
-6.11067e-12
-7.1978e-12
-2.69296e-12
-2.34479e-12
-3.15481e-12
-3.71614e-12
-4.8388e-12
-1.98241e-12
3.02691e-12
4.11404e-12
3.08376e-12
7.76623e-12
6.11777e-12
7.67386e-12
8.80362e-12
1.02887e-11
9.46443e-12
5.22249e-12
1.01963e-11
2.64322e-12
-5.42144e-12
2.23821e-12
7.4678e-12
1.06297e-11
1.15392e-11
3.21805e-11
9.03455e-11
2.58758e-10
7.12411e-10
1.92986e-09
5.13037e-09
1.34143e-08
3.45671e-08
8.78541e-08
2.20254e-07
5.44664e-07
1.3283e-06
3.19383e-06
7.56916e-06
1.76753e-05
4.06555e-05
9.20774e-05
0.000205258
0.000450175
0.000970976
0.00205862
0.00428807
0.00877057
0.0176041
0.0346526
0.0668468
0.126271
0.233355
0.421502
0.743315
1.27822
2.14042
3.48487
5.50692
8.42884
12.4615
17.7067
24.0263
31.2488
39.2613
47.9407
57.1524
66.7657
76.6632
86.7452
96.9307
107.155
117.368
127.529
137.61
147.585
157.436
167.149
176.711
186.114
195.349
204.411
213.296
221.999
230.517
238.848
246.99
254.941
262.701
270.268
277.643
284.824
291.811
298.604
305.203
311.608
317.818
323.834
329.655
335.281
340.711
345.945
350.983
355.823
360.466
364.905
369.152
373.177
377.035
380.621
384.09
387.246
390.249
393.069
395.512
397.98
399.993
401.851
403.644
404.944
406.182
407.304
407.998
408.615
409.184
409.464
409.591
409.772
409.849
409.833
409.786
409.773
409.769
409.752
409.69
409.62
409.598
409.561
409.512
409.485
409.471
409.446
409.413
409.398
409.391
409.382
409.363
409.35
409.339
409.32
409.294
409.277
409.258
409.23
409.206
409.18
409.146
409.123
409.091
409.056
409.062
409.022
408.985
408.96
408.937
408.896
408.818
408.74
408.687
408.655
408.624
408.58
408.407
408.196
408.061
408.04
408.063
408.252
408.629
408.772
408.755
407.484
398.046
368.965
340.79
318.207
301.467
290.448
283.23
278.609
275.572
274.109
273.801
273.584
273.049
272.834
273.167
273.467
273.346
272.926
272.946
273.443
273.558
273.118
272.904
273.138
273.512
273.42
272.909
272.869
273.417
273.562
273.03
272.808
273.036
273.447
273.323
272.803
272.778
273.27
273.396
272.805
272.652
272.78
273.177
273.05
272.504
272.468
272.676
272.968
272.369
272.109
272.123
272.374
272.432
271.488
271.409
271.557
272.052
271.005
270.227
270.259
270.706
270.792
268.333
267.951
268.262
269.189
266.98
262.941
260.265
255.347
238.039
175.026
51.6048
14.1668
3.49401
0.83287
0.196695
0.0463216
0.0109004
0.00256461
0.000603355
0.000141934
3.33853e-05
7.85183e-06
1.84643e-06
4.34153e-07
1.0207e-07
2.39935e-08
5.63998e-09
1.3264e-09
3.11902e-10
7.29212e-11
1.63105e-11
4.36984e-12
1.36602e-12
-6.50147e-13
-2.04459e-12
-3.24718e-12
-1.68399e-12
-2.01439e-12
-1.71951e-12
-1.20082e-12
2.59348e-13
1.30917e-12
-3.44613e-13
-1.90603e-12
-2.3892e-12
-2.21156e-12
-1.82254e-12
-1.23812e-12
-4.40536e-13
-5.68434e-13
1.38556e-13
4.10338e-13
1.02496e-12
5.32907e-15
6.78568e-13
2.24354e-12
1.7053e-12
2.29328e-12
2.68763e-12
1.21503e-12
7.79821e-13
-3.23297e-13
-3.51719e-13
-1.05338e-12
-3.4639e-13
-6.30607e-13
-5.41789e-13
1.52944e-12
1.25588e-12
1.61648e-12
9.98313e-13
1.04627e-12
6.03961e-13
3.4639e-13
1.79412e-13
3.33955e-13
8.70415e-13
1.43885e-13
-7.63833e-14
-5.64881e-13
2.20268e-13
1.82965e-13
-1.01785e-12
1.75859e-13
5.1692e-13
-1.75682e-12
-2.22578e-12
-2.13873e-12
-2.11742e-12
-1.11378e-12
-1.72662e-12
-2.07478e-12
-3.01981e-13
6.11067e-13
5.73763e-13
-1.65024e-12
-2.30926e-13
1.53477e-12
2.63789e-12
2.88836e-12
1.49392e-12
1.86517e-12
2.24532e-12
1.22213e-12
-5.18696e-13
-1.42464e-12
5.8975e-13
9.73444e-13
0
6.75016e-14
1.82609e-12
3.1708e-12
3.82272e-12
3.31113e-12
1.79234e-12
1.81011e-12
1.11733e-12
-1.66978e-13
0
-9.13047e-13
-2.17781e-12
-3.23297e-12
-4.58122e-12
-4.52083e-12
-3.12816e-12
-3.81561e-12
-4.38938e-12
-3.93818e-12
-1.99485e-12
-3.01625e-12
-1.62537e-12
-1.40332e-12
-2.4869e-14
1.3447e-12
5.7554e-13
5.84421e-13
2.41407e-12
3.37508e-12
1.58096e-12
2.88125e-12
1.5703e-12
-1.1724e-13
-9.59233e-13
1.04805e-12
1.63247e-12
1.9309e-12
1.03739e-12
-7.99361e-14
-2.28084e-12
-1.533e-12
-7.6561e-13
5.32907e-13
-1.13687e-13
-1.68043e-12
-2.6148e-12
-3.05711e-12
-1.95222e-12
-4.72511e-13
1.19194e-12
1.86695e-12
7.51399e-13
1.55609e-12
4.93827e-13
-1.35358e-12
-1.73017e-12
-6.99885e-13
-1.86517e-12
-2.73737e-12
-2.71427e-12
-2.25775e-12
-1.45839e-12
-7.94032e-13
-2.29328e-12
-3.68416e-12
-3.60068e-12
-4.28102e-12
-3.74811e-12
-8.13571e-13
2.91323e-13
-1.00542e-12
-7.30083e-13
-7.99361e-13
8.70415e-13
7.30083e-13
7.01661e-13
4.54747e-13
8.49099e-13
9.76996e-13
-2.61124e-13
-1.33582e-12
-1.64135e-12
4.54747e-13
1.42464e-12
5.24025e-13
-9.43245e-13
6.57252e-14
-1.69642e-12
-3.74811e-13
7.97584e-13
1.24167e-12
8.41993e-13
7.81597e-14
-1.69464e-12
-2.02505e-13
1.35003e-12
3.27915e-12
4.52083e-12
4.66649e-12
5.4392e-12
4.94005e-12
4.30589e-12
4.24549e-12
3.54561e-12
2.2542e-12
1.9984e-12
1.57208e-12
-2.84217e-13
-4.88498e-13
-3.49942e-13
-2.4194e-12
-1.44951e-12
-1.30562e-12
-2.70006e-12
-2.72138e-12
-1.01608e-12
-1.19904e-12
-7.10543e-15
-2.70006e-13
7.81597e-14
-2.18492e-13
-8.59757e-13
-1.21148e-12
-2.68763e-12
-2.79599e-12
-3.29159e-12
-3.92752e-12
-4.13358e-12
-2.17426e-12
-2.85993e-13
-5.41789e-13
-1.3145e-13
-7.44294e-13
-2.71605e-12
-8.34888e-13
-1.06937e-12
7.10543e-15
4.44089e-13
4.26326e-13
5.52447e-13
-4.08562e-14
-2.45137e-13
-3.37508e-13
4.08562e-14
3.55271e-15
-1.55786e-12
-6.60805e-13
1.71063e-12
1.42109e-13
-1.7284e-12
-1.47082e-12
-2.5544e-12
-3.50298e-12
-4.1851e-12
-5.39835e-12
-5.13367e-12
-4.82281e-12
-5.00755e-12
-3.94529e-12
-3.63265e-12
-4.92939e-12
-3.02336e-12
-1.61826e-12
-1.19194e-12
-1.5099e-13
-1.52767e-13
-4.9738e-13
-1.76925e-12
-2.84395e-12
-2.33413e-12
-7.47846e-13
-1.89004e-12
-3.99858e-12
-3.95595e-12
-2.16183e-12
7.70939e-13
1.98952e-12
4.21174e-12
3.78186e-12
2.51887e-12
2.645e-12
2.68408e-12
2.78888e-12
3.01803e-12
1.78169e-12
1.0143e-12
7.4607e-13
8.10019e-13
2.42117e-12
3.91864e-12
3.80496e-12
3.12461e-12
2.73914e-12
2.8475e-12
1.4424e-12
1.56497e-12
1.42819e-12
3.40172e-12
5.42677e-12
6.33626e-12
6.13021e-12
5.73941e-12
5.07505e-12
5.06795e-12
3.30935e-12
3.66995e-12
3.66107e-12
3.57225e-12
4.14246e-12
3.70015e-12
3.19211e-12
3.22764e-12
2.49933e-12
2.36078e-12
3.72324e-12
2.08189e-12
1.63425e-13
1.31806e-12
1.13332e-12
8.08242e-13
1.93978e-12
2.18492e-13
-5.38236e-13
-6.91003e-13
-2.38209e-12
-2.65921e-12
-8.93507e-13
7.31859e-13
8.63309e-13
1.09779e-12
1.31983e-12
4.88498e-13
1.12088e-12
1.42997e-12
1.15818e-12
-2.41585e-13
5.82645e-13
1.34825e-12
9.37916e-13
1.29674e-13
-1.25056e-12
-2.39808e-13
7.17648e-13
6.89226e-13
2.19558e-12
2.42117e-12
1.32161e-12
2.57572e-13
-2.13163e-13
-2.94875e-13
2.54019e-13
1.40332e-13
5.32907e-15
-7.72715e-13
-1.99663e-12
-1.74616e-12
8.17124e-14
5.09814e-13
3.89022e-13
1.20437e-12
7.15872e-13
2.15472e-12
2.10321e-12
1.98774e-12
3.0429e-12
3.06599e-12
4.54392e-12
6.24922e-12
6.32205e-12
5.51026e-12
6.19771e-12
6.00053e-12
5.7252e-12
5.13545e-12
6.96865e-12
8.3773e-12
9.69891e-12
1.18092e-11
1.06937e-11
1.05391e-11
1.18234e-11
1.35092e-11
1.27187e-11
1.12088e-11
1.15392e-11
1.17542e-11
1.20259e-11
1.1493e-11
1.26068e-11
1.44578e-11
1.30989e-11
1.25056e-11
)
;

boundaryField
{
    sides
    {
        type            calculated;
        value           nonuniform List<scalar> 2(1.21094e-11 4.08269e-11);
    }
    empty
    {
        type            empty;
        value           nonuniform 0();
    }
}


// ************************************************************************* //
