/*--------------------------------*- C++ -*----------------------------------*\
| =========                 |                                                 |
| \\      /  F ield         | OpenFOAM: The Open Source CFD Toolbox           |
|  \\    /   O peration     | Version:  4.1                                   |
|   \\  /    A nd           | Web:      www.OpenFOAM.org                      |
|    \\/     M anipulation  |                                                 |
\*---------------------------------------------------------------------------*/
FoamFile
{
    version     2.0;
    format      ascii;
    class       volScalarField;
    location    "0.002";
    object      T;
}
// * * * * * * * * * * * * * * * * * * * * * * * * * * * * * * * * * * * * * //

dimensions      [0 0 0 1 0 0 0];

internalField   nonuniform List<scalar> 
1000
(
400
400
400
400
400
400
400
400
400
400
400
400
400
400
400
400
400
400
400
400
400
400
400
400
400
400
400
400
400
400
400
400
400
400
400
400
400
400
400
400
400
400
400
400
400
400
400
400
400
400
400
400
400
400
400
400
400
400
400
400
400
400
400
400
400
400
400
400
400
400
400
400
400
400
400
400
400
400
400
400
400
400
400
400
400
400
400
400
400
400
400
400
400
400
400
400
400
400
400
400
400
400
400
400
400
400
400
400
400
400
400
400
400
400
400
400
400
400
400
400
400
400
400
400
400
400
400
400
400
400
400
400
400
400
400
400
400
400
400
400
400
400
400
400
400
400
400
400
400
400
400
400
400
400
400
400
400
400
400
400
400
400
400
400
400
400
400
400
400
400
400
400
400
400
400
400
400
400
400
400
400
400
400
400
400
400
400
400
400
400
400
400
400
400
400
400
400
400
400
400
400
400
400
400
400
400
400
400
400
400
400
400
400
400
400
400
400
400
400
400
400
400
400
400
400
400
400
400
400
400
400
400
400
400
400
400
400
400
400
400
400
400
400
400
400
400
400
400
400
400
400
400
400
400
400
400
400
400
400
400
400
400
400
400
400
400
400
400
400
400
400
400
400
400
400
400
400
400
400
400
400
400
400
400
400
400
400
400
400
400
400
400
400
400
400
400
400
400
400
400
400
400
400
400
400
400
400
400
400
400
400
400
400
400
400
400
400
400
400
400
400
400
400
400
400
400
400
400
400
400
400
400
400
400
400
400
400
400
400
400
400
400
400
400
400
400
400
400
400
400
400
400
400
400
400
400
400
400
400
400
400
400
400
400
400
400
400
400
400
400
400
400
400
400
400
400
400
400
400
400
400
400
400
400
400
400
400
400
400
400
400
400
400
400
400
400
400
400
400
400
400
399.999
399.999
399.997
399.995
399.99
399.981
399.965
399.937
399.89
399.813
399.69
399.501
399.221
398.824
398.288
397.614
396.818
395.913
394.91
393.822
392.661
391.44
390.171
388.864
387.526
386.164
384.782
383.385
381.975
380.556
379.129
377.696
376.259
374.818
373.376
371.932
370.488
369.045
367.603
366.163
364.726
363.293
361.863
360.439
359.019
357.607
356.201
354.803
353.413
352.033
350.663
349.306
347.96
346.629
345.313
344.014
342.734
341.475
340.234
339.03
337.824
336.714
335.5
334.578
333.275
332.612
331.292
330.669
329.728
328.804
328.364
327.463
326.914
326.586
325.936
325.613
325.462
325.117
324.924
324.905
324.841
324.753
324.754
324.782
324.791
324.787
324.79
324.811
324.842
324.865
324.881
324.914
324.937
324.942
324.95
324.967
324.98
324.985
324.991
325.007
325.023
325.03
325.037
325.055
325.069
325.077
325.093
325.112
325.123
325.14
325.164
325.182
325.193
325.214
325.249
325.283
325.304
325.316
325.334
325.379
325.444
325.496
325.525
325.539
325.564
325.645
325.814
325.952
326.022
326.03
325.957
325.675
325.437
325.375
325.754
329.474
345.825
376.053
405.428
430.811
450.801
465.278
474.884
480.733
484.018
485.749
486.584
486.884
486.918
486.917
486.943
486.926
486.842
486.787
486.803
486.844
486.834
486.757
486.738
486.787
486.814
486.766
486.714
486.73
486.788
486.781
486.698
486.681
486.734
486.762
486.701
486.65
486.662
486.715
486.7
486.617
486.6
486.629
486.657
486.585
486.525
486.517
486.549
486.543
486.431
486.407
486.404
486.42
486.344
486.237
486.204
486.186
486.193
485.983
485.864
485.823
485.89
485.722
485.368
485.278
485.302
485.252
484.414
483.756
482.471
479.882
474.63
437.129
410.667
402.746
400.663
400.157
400.037
400.009
400.002
400
400
400
400
400
400
400
400
400
400
400
400
400
400
400
400
400
400
400
400
400
400
400
400
400
400
400
400
400
400
400
400
400
400
400
400
400
400
400
400
400
400
400
400
400
400
400
400
400
400
400
400
400
400
400
400
400
400
400
400
400
400
400
400
400
400
400
400
400
400
400
400
400
400
400
400
400
400
400
400
400
400
400
400
400
400
400
400
400
400
400
400
400
400
400
400
400
400
400
400
400
400
400
400
400
400
400
400
400
400
400
400
400
400
400
400
400
400
400
400
400
400
400
400
400
400
400
400
400
400
400
400
400
400
400
400
400
400
400
400
400
400
400
400
400
400
400
400
400
400
400
400
400
400
400
400
400
400
400
400
400
400
400
400
400
400
400
400
400
400
400
400
400
400
400
400
400
400
400
400
400
400
400
400
400
400
400
400
400
400
400
400
400
400
400
400
400
400
400
400
400
400
400
400
400
400
400
400
400
400
400
400
400
400
400
400
400
400
400
400
400
400
400
400
400
400
400
400
400
400
400
400
400
400
400
400
400
400
400
400
400
400
400
400
400
400
400
400
400
400
400
400
400
400
400
400
400
400
400
400
400
400
400
400
400
400
400
400
400
400
400
400
400
400
400
400
400
400
400
400
400
400
400
400
400
400
400
400
400
400
400
400
400
400
400
400
400
400
400
400
400
400
400
400
400
400
400
400
400
400
400
400
400
400
400
400
400
400
400
400
400
400
400
400
400
400
400
400
400
400
400
400
400
400
400
400
400
400
400
400
400
400
400
400
400
400
400
400
400
400
400
400
400
400
400
400
400
400
400
400
400
400
400
400
400
400
400
400
400
400
400
400
400
400
400
400
400
400
400
400
400
400
400
400
)
;

boundaryField
{
    sides
    {
        type            zeroGradient;
    }
    empty
    {
        type            empty;
    }
}


// ************************************************************************* //
