/*--------------------------------*- C++ -*----------------------------------*\
| =========                 |                                                 |
| \\      /  F ield         | OpenFOAM: The Open Source CFD Toolbox           |
|  \\    /   O peration     | Version:  4.1                                   |
|   \\  /    A nd           | Web:      www.OpenFOAM.org                      |
|    \\/     M anipulation  |                                                 |
\*---------------------------------------------------------------------------*/
FoamFile
{
    version     2.0;
    format      ascii;
    class       volScalarField;
    location    "0.0022";
    object      mag(U);
}
// * * * * * * * * * * * * * * * * * * * * * * * * * * * * * * * * * * * * * //

dimensions      [0 1 -1 0 0 0 0];

internalField   nonuniform List<scalar> 
1000
(
1.13506e-11
1.20381e-11
1.58785e-11
1.46672e-11
1.38279e-11
1.62971e-11
1.75436e-11
1.86612e-11
1.67904e-11
1.77852e-11
1.61459e-11
1.76186e-11
1.68638e-11
1.8227e-11
1.65728e-11
1.77875e-11
1.72542e-11
1.88936e-11
1.45574e-11
1.51651e-11
1.15234e-11
1.21448e-11
1.12641e-11
1.1837e-11
6.97656e-12
8.63079e-12
3.67229e-12
5.80164e-12
4.22365e-12
5.07815e-12
6.94127e-12
9.19001e-12
1.03251e-11
1.04392e-11
1.37755e-11
8.90561e-12
9.94794e-12
4.87437e-12
6.72513e-12
2.4238e-12
6.32529e-12
2.62574e-13
5.40619e-12
6.92992e-13
3.60399e-12
1.89355e-12
3.96384e-12
6.46166e-12
3.64227e-12
3.49953e-12
3.94871e-12
3.15135e-12
2.76383e-12
3.93114e-12
5.65165e-12
4.91716e-12
2.30878e-12
1.60259e-12
2.43969e-12
3.62625e-12
6.7788e-13
2.55149e-12
5.19983e-13
9.79569e-13
5.72214e-13
4.85351e-13
3.69706e-13
2.63941e-12
2.01275e-13
5.3208e-13
3.11438e-12
3.3909e-12
6.44298e-12
4.95819e-12
9.01047e-12
6.83645e-12
8.5025e-12
8.25801e-12
9.43176e-12
7.60487e-12
6.00584e-12
4.04883e-12
3.56307e-12
4.36491e-12
2.0593e-12
2.74318e-12
4.22254e-12
5.53587e-12
3.04232e-12
6.77888e-12
6.4846e-12
1.02029e-11
5.82054e-12
9.39954e-12
1.03292e-11
1.28672e-11
9.90364e-12
1.04648e-11
9.38326e-12
7.18425e-12
7.78618e-12
8.11083e-12
7.60183e-12
5.15375e-12
5.56226e-12
4.44534e-12
3.93882e-12
1.76657e-12
2.84888e-12
2.92173e-12
2.73102e-12
5.89601e-12
4.05841e-12
2.99172e-12
3.9045e-12
5.71956e-12
2.39398e-12
2.52321e-12
2.98823e-12
3.55273e-12
5.15139e-12
5.61682e-12
5.31393e-12
7.36075e-12
7.00349e-12
6.51451e-12
4.31381e-12
4.02665e-12
1.51654e-12
3.03188e-12
1.43801e-12
2.4965e-12
3.97905e-12
5.58495e-12
3.91337e-12
3.94985e-12
1.56906e-12
3.12709e-13
2.65139e-13
3.72669e-12
3.84944e-12
2.88432e-12
3.61075e-12
1.871e-13
3.15624e-13
8.42544e-13
2.74461e-12
5.8382e-13
2.28818e-12
4.43187e-12
4.29988e-12
2.30353e-12
4.84608e-12
7.92146e-13
1.31667e-12
5.39416e-13
3.63111e-13
1.00665e-12
6.20023e-14
5.02571e-13
2.53479e-12
1.1553e-13
1.56936e-12
5.27442e-13
6.64398e-13
1.69886e-12
1.26353e-12
1.611e-12
1.73992e-12
8.71074e-13
3.48317e-12
3.13518e-12
3.6902e-12
8.35732e-13
1.05928e-12
3.26588e-12
1.0859e-12
2.79681e-12
5.2358e-13
1.3067e-12
1.35297e-12
4.18246e-12
4.54214e-12
5.89957e-12
8.1572e-12
7.22639e-12
3.40592e-12
4.81971e-12
3.44439e-12
4.51964e-12
3.84083e-12
2.29516e-12
7.35543e-13
6.78494e-13
2.48974e-12
2.72037e-12
2.83529e-12
1.78126e-12
3.30089e-12
1.28236e-12
5.35138e-12
2.93456e-12
8.84225e-12
7.14742e-12
7.68176e-12
8.65218e-12
7.71241e-12
6.68661e-12
6.44299e-12
5.87704e-12
4.55436e-12
4.51055e-12
1.81348e-12
2.54176e-12
1.77962e-12
4.30211e-12
9.17461e-13
4.02604e-12
1.46686e-13
3.66274e-12
2.26586e-12
7.54782e-12
4.78924e-12
5.09937e-12
1.71986e-12
6.75854e-12
1.97079e-12
1.90475e-12
3.98548e-13
2.83504e-12
1.33015e-12
9.1956e-14
4.37482e-12
8.31158e-13
2.59284e-12
2.78929e-13
4.01447e-12
3.15286e-12
4.29454e-12
1.4341e-12
5.49759e-12
3.49497e-12
1.5422e-12
1.17347e-12
3.44848e-13
5.90425e-14
4.80975e-13
2.98166e-12
1.78599e-12
5.76924e-13
9.72012e-13
1.33359e-12
8.96562e-13
8.92087e-13
8.57364e-13
1.68957e-12
3.53369e-12
2.51281e-13
4.10645e-13
6.9881e-13
2.04973e-12
9.11426e-13
7.03005e-13
6.2417e-13
1.38308e-12
1.00754e-13
1.29083e-12
1.69524e-12
6.22782e-13
2.02074e-12
3.19735e-12
5.02027e-12
3.02995e-12
1.17148e-12
1.97423e-12
1.75652e-12
1.49082e-13
1.33101e-13
2.35815e-13
1.69072e-12
2.60521e-12
3.73133e-12
2.61732e-12
2.50702e-12
1.01755e-12
2.81905e-12
1.49698e-12
3.46699e-12
2.49497e-12
2.34782e-12
3.90353e-12
4.65884e-12
5.24993e-12
7.37504e-12
7.30859e-12
5.91856e-12
3.04954e-12
6.09444e-12
8.45196e-12
7.39534e-12
8.35382e-12
3.34218e-12
5.12515e-12
3.48209e-12
6.30586e-12
6.28229e-12
6.75664e-12
3.84999e-12
2.26227e-12
1.30169e-12
3.9468e-12
2.0704e-12
2.02727e-12
2.99048e-12
1.21033e-12
1.05922e-12
1.33113e-12
1.73657e-12
5.45961e-13
2.60778e-12
2.97496e-12
3.77459e-12
4.7584e-12
4.00029e-12
9.69716e-13
2.19027e-12
7.06794e-13
2.45991e-12
1.15917e-12
1.32952e-12
2.17507e-12
2.42132e-12
6.50034e-13
2.42149e-12
1.87572e-12
1.08223e-12
1.67852e-12
9.22279e-13
1.09177e-12
1.85943e-12
1.88988e-12
2.77287e-12
2.74126e-12
9.67619e-14
2.09932e-12
4.09144e-13
2.47864e-12
3.00446e-12
5.97907e-13
6.31848e-13
3.15912e-12
1.95796e-12
3.54274e-12
1.8586e-12
1.68029e-12
7.19966e-13
2.47018e-13
3.89825e-13
1.15318e-12
2.49194e-12
5.82529e-13
1.14661e-13
2.46064e-12
4.15887e-12
2.0528e-12
3.34972e-12
2.5932e-12
2.46689e-12
2.82332e-12
2.07353e-12
7.8521e-12
1.99849e-11
5.37831e-11
1.44211e-10
3.78221e-10
9.82752e-10
2.51688e-09
6.34854e-09
1.57997e-08
3.88198e-08
9.41521e-08
2.25398e-07
5.3248e-07
1.24104e-06
2.85286e-06
6.46632e-06
1.4447e-05
3.18053e-05
6.89707e-05
0.000147268
0.000309492
0.000639885
0.00130094
0.00259953
0.00510238
0.00983162
0.0185851
0.0344406
0.0625163
0.111056
0.192878
0.327142
0.541216
0.872147
1.36685
2.0795
3.06347
4.35199
5.93897
7.79418
9.89032
12.2036
14.7076
17.3749
20.1789
23.0961
26.1063
29.1927
32.342
35.5434
38.7881
42.0691
45.3808
48.7186
52.0785
55.4573
58.8521
62.2607
65.6807
69.1103
72.5477
75.9915
79.4399
82.8918
86.3456
89.8001
93.2539
96.7058
100.154
103.598
107.036
110.467
113.888
117.299
120.698
124.082
127.45
130.799
134.128
137.433
140.712
143.962
147.179
150.359
153.499
156.593
159.637
162.625
165.552
168.409
171.192
173.887
176.495
178.996
181.388
183.659
185.794
187.792
189.633
191.31
192.82
194.147
195.294
196.261
197.048
197.671
198.138
198.465
198.686
198.809
198.863
198.883
198.887
198.886
198.878
198.861
198.826
198.778
198.726
198.676
198.638
198.615
198.601
198.594
198.59
198.586
198.584
198.581
198.579
198.577
198.575
198.575
198.575
198.575
198.575
198.574
198.573
198.571
198.57
198.569
198.567
198.565
198.564
198.562
198.56
198.558
198.557
198.555
198.554
198.554
198.553
198.552
198.551
198.55
198.548
198.547
198.546
198.544
198.543
198.544
198.543
198.541
198.539
198.537
198.535
198.536
198.549
198.571
198.613
198.724
198.944
198.991
198.775
198.578
198.466
198.452
198.483
198.495
198.484
198.488
198.522
198.539
198.512
198.484
198.502
198.531
198.512
198.469
198.466
198.502
198.512
198.474
198.446
198.472
198.506
198.486
198.44
198.435
198.468
198.474
198.43
198.397
198.419
198.445
198.412
198.354
198.347
198.379
198.377
198.315
198.263
198.269
198.287
198.243
198.167
198.135
198.144
198.122
198.039
197.965
197.941
197.924
197.847
197.739
197.665
197.621
197.548
197.408
197.268
197.171
197.088
196.929
196.699
196.504
196.361
196.187
195.869
195.508
195.22
194.979
194.61
194.031
193.372
192.708
191.98
190.205
185.904
175.822
142.272
73.3791
21.2794
5.41243
1.30094
0.308038
0.0726598
0.0171172
0.0040306
0.000948896
0.000223366
5.25752e-05
1.23738e-05
2.91192e-06
6.85184e-07
1.61206e-07
3.79252e-08
8.92282e-09
2.09996e-09
4.94917e-10
1.17386e-10
2.81748e-11
6.23922e-12
7.81417e-13
2.82061e-12
5.16232e-12
3.20612e-12
3.07749e-12
1.23281e-12
8.67752e-14
1.17614e-12
9.05475e-13
2.31666e-12
1.40634e-12
1.91264e-12
6.34232e-13
5.71698e-13
2.49337e-12
2.47358e-12
1.41636e-12
2.33964e-12
4.18524e-12
2.51046e-12
3.80615e-12
2.30517e-12
4.35202e-12
1.26532e-12
6.36531e-13
1.53127e-12
4.56968e-13
2.10166e-12
3.2095e-13
1.31676e-12
2.18409e-13
3.50094e-12
1.03348e-12
8.59517e-13
6.84027e-13
2.59116e-12
6.17783e-13
2.50563e-13
1.51142e-12
3.71868e-12
1.12675e-12
1.08962e-12
1.49353e-12
1.17889e-12
3.22037e-12
2.18492e-12
2.98118e-12
5.89888e-14
2.35206e-12
2.67474e-12
2.33873e-13
3.35488e-12
1.94011e-12
2.14076e-12
1.17125e-12
1.26077e-12
4.56533e-13
1.75235e-12
3.00529e-13
1.62168e-12
1.54625e-12
2.37122e-12
1.96722e-13
1.12537e-12
1.9186e-12
1.90114e-12
7.31749e-13
9.76383e-13
2.42694e-12
1.49758e-14
2.93745e-12
4.47447e-12
2.56849e-12
7.36638e-13
1.99158e-12
2.79397e-13
2.93333e-12
3.59197e-12
4.48413e-12
6.54276e-13
8.42531e-13
4.07654e-13
8.34474e-13
5.77295e-13
1.09879e-12
3.43811e-12
2.24741e-12
3.09714e-12
8.88341e-13
2.27862e-12
2.84114e-12
2.5581e-12
3.00649e-12
1.3294e-12
1.94201e-12
2.29431e-13
2.21578e-12
1.86269e-12
3.53636e-12
3.01245e-12
8.92862e-13
2.68586e-12
3.42897e-12
2.95925e-12
2.50753e-14
1.4058e-12
2.75466e-12
5.90603e-13
1.71932e-12
5.30694e-13
1.40988e-12
2.0338e-12
1.9265e-13
1.72309e-12
2.49821e-12
2.19596e-12
2.3922e-12
4.24503e-13
2.18166e-12
1.31777e-12
4.3528e-12
1.72278e-12
1.42795e-12
5.52989e-13
1.70575e-12
1.37658e-12
2.43868e-12
5.65254e-12
6.57386e-12
3.81779e-12
2.46631e-12
3.26828e-13
2.13415e-12
2.49867e-12
1.31799e-13
9.97423e-14
3.56323e-12
3.12879e-12
5.84595e-13
1.35012e-12
1.7982e-12
2.1057e-12
1.82581e-12
4.75425e-12
6.96981e-13
2.95029e-12
2.38174e-12
8.48285e-13
2.724e-12
1.41219e-12
1.42974e-12
2.28669e-13
4.20653e-13
2.20686e-12
2.52315e-13
1.10572e-12
1.53112e-12
1.84187e-12
9.97433e-13
1.79309e-12
1.1712e-12
2.60199e-12
1.04763e-12
1.39604e-12
1.18308e-12
2.89389e-12
3.32341e-12
6.63365e-12
4.15919e-12
4.43785e-12
3.71292e-12
6.01235e-12
7.29743e-12
7.05203e-12
5.22271e-12
3.66836e-12
4.30979e-13
1.03514e-12
3.66318e-12
1.95614e-12
4.70827e-12
1.46656e-12
2.73096e-12
8.7198e-13
7.66408e-13
3.58272e-13
1.38357e-13
2.61941e-12
2.26905e-12
3.03894e-12
5.06365e-12
8.90445e-14
3.53171e-13
9.79074e-13
1.23661e-12
2.62061e-12
2.39105e-12
1.4625e-12
2.66398e-12
1.22821e-13
3.35749e-12
9.74457e-13
2.12659e-13
9.10109e-13
1.71167e-12
1.1416e-12
1.46166e-12
4.11396e-12
1.79494e-12
5.56111e-12
3.95947e-12
6.09006e-12
7.4161e-12
7.93093e-12
5.33888e-12
6.69824e-12
8.67755e-12
5.18839e-12
4.65771e-12
4.27916e-12
1.23995e-12
1.07526e-12
6.78568e-13
6.60753e-13
2.12279e-12
2.45984e-13
1.06308e-12
1.36109e-12
8.47583e-13
1.3522e-12
7.68715e-14
1.31266e-13
1.09308e-12
1.64066e-12
4.83535e-12
2.74689e-12
1.43395e-13
1.29783e-12
2.16944e-12
1.10047e-13
1.68584e-13
1.34119e-12
6.81766e-13
7.57038e-13
2.05228e-12
2.26106e-14
1.1364e-12
4.16132e-12
4.80515e-12
4.04299e-12
8.67964e-13
1.86274e-12
2.59084e-12
3.81632e-12
1.71883e-12
4.16953e-12
2.52495e-12
4.06919e-12
3.54643e-12
4.34107e-12
1.04837e-12
3.2187e-13
1.54805e-12
1.06397e-12
4.22259e-12
1.73322e-12
7.2959e-12
4.50446e-12
4.51183e-12
7.345e-12
7.21667e-12
6.77344e-12
6.57345e-12
6.56318e-12
5.07575e-12
6.36146e-12
7.64184e-12
4.74763e-12
4.7435e-12
5.13773e-12
4.6469e-12
1.65557e-12
2.88032e-12
3.22601e-12
2.74937e-12
1.90045e-12
7.63456e-13
2.05596e-12
3.50051e-12
2.2556e-12
4.94372e-13
1.97748e-12
2.7855e-12
4.54009e-12
3.39019e-12
5.02222e-13
3.91447e-13
8.13778e-13
1.93192e-12
1.26919e-12
2.9897e-12
3.6071e-12
1.16198e-12
1.39247e-12
1.31398e-12
2.76245e-12
6.81523e-13
2.89975e-12
2.49027e-12
3.01794e-12
2.37184e-12
2.00929e-13
4.1471e-13
8.58675e-13
9.45358e-13
1.22811e-12
5.87056e-13
1.54294e-12
5.169e-13
2.8184e-12
8.92378e-13
9.21858e-14
1.51468e-12
2.67594e-12
1.06405e-12
2.30427e-12
2.41351e-12
1.02977e-13
5.00408e-12
4.94641e-12
9.04328e-12
6.58201e-12
7.98365e-12
5.25193e-12
8.02772e-12
7.96827e-12
1.03358e-11
8.50088e-12
7.71239e-12
9.40121e-12
9.47883e-12
1.13524e-11
1.10396e-11
1.11403e-11
1.20895e-11
1.27623e-11
1.44177e-11
1.41803e-11
1.39941e-11
1.59866e-11
1.52534e-11
1.72781e-11
1.44941e-11
1.54403e-11
1.39138e-11
1.89383e-11
1.66297e-11
1.86262e-11
1.69163e-11
)
;

boundaryField
{
    sides
    {
        type            calculated;
        value           nonuniform List<scalar> 2(1.69163e-11 1.13506e-11);
    }
    empty
    {
        type            empty;
    }
}


// ************************************************************************* //
