/*--------------------------------*- C++ -*----------------------------------*\
| =========                 |                                                 |
| \\      /  F ield         | OpenFOAM: The Open Source CFD Toolbox           |
|  \\    /   O peration     | Version:  4.1                                   |
|   \\  /    A nd           | Web:      www.OpenFOAM.org                      |
|    \\/     M anipulation  |                                                 |
\*---------------------------------------------------------------------------*/
FoamFile
{
    version     2.0;
    format      ascii;
    class       surfaceScalarField;
    location    "0.0022";
    object      phi;
}
// * * * * * * * * * * * * * * * * * * * * * * * * * * * * * * * * * * * * * //

dimensions      [1 0 -1 0 0 0 0];

internalField   nonuniform List<scalar> 
999
(
-3.97904e-11
-4.78551e-11
-5.49747e-11
-4.83382e-11
-5.20046e-11
-5.75184e-11
-6.55973e-11
-6.0929e-11
-5.84208e-11
-5.95364e-11
-5.79021e-11
-6.05311e-11
-6.09006e-11
-6.09006e-11
-5.89466e-11
-6.00053e-11
-6.52065e-11
-5.62608e-11
-5.08038e-11
-4.77058e-11
-4.03944e-11
-3.99112e-11
-4.13394e-11
-3.23439e-11
-2.71783e-11
-2.21689e-11
-1.55325e-11
-1.85665e-11
-1.47935e-11
-2.1366e-11
-2.93596e-11
-3.26992e-11
-3.51434e-11
-4.35492e-11
-3.90017e-11
-3.26779e-11
-2.63114e-11
-1.95968e-11
-1.67262e-11
-1.36353e-11
-1.1795e-11
-9.62075e-12
-9.37916e-12
-8.61888e-12
-8.35598e-12
-1.15179e-11
-1.75433e-11
-1.84102e-11
-1.12053e-11
-1.39906e-11
-1.28395e-11
-9.50706e-12
-1.14184e-11
-1.7657e-11
-1.74865e-11
-1.29745e-11
-7.39675e-12
1.63425e-12
-1.73372e-12
-8.49099e-12
-4.7109e-12
-6.4091e-12
-2.13873e-12
-3.2685e-12
-1.4424e-12
-1.13687e-13
-4.93827e-12
-3.93641e-12
-1.81899e-12
4.94538e-12
1.17808e-11
1.58877e-11
2.16218e-11
2.25597e-11
2.86633e-11
2.68727e-11
2.77751e-11
3.22586e-11
2.98428e-11
2.23039e-11
1.92486e-11
1.15534e-11
1.50351e-11
1.16529e-11
7.76623e-12
1.20579e-11
1.76712e-11
1.50564e-11
1.64277e-11
2.37677e-11
2.95231e-11
2.66027e-11
2.72848e-11
3.52216e-11
3.95417e-11
4.05223e-11
3.41416e-11
3.6259e-11
2.77396e-11
2.52669e-11
2.70788e-11
2.83364e-11
2.15579e-11
1.92983e-11
1.7053e-11
1.58877e-11
8.75389e-12
8.59757e-12
1.00329e-11
9.18021e-12
1.5703e-11
1.82965e-11
1.14326e-11
1.24061e-11
1.64277e-11
1.53619e-11
7.95097e-12
9.18732e-12
1.17524e-11
1.49072e-11
1.93836e-11
1.8062e-11
2.31921e-11
2.46274e-11
2.24247e-11
1.92983e-11
1.40403e-11
1.06937e-11
7.75202e-12
6.91358e-12
7.07701e-12
1.06724e-11
1.7792e-11
1.56675e-11
1.35358e-11
1.01608e-11
2.07478e-12
-1.4424e-12
-5.7554e-12
-1.45448e-11
-1.15534e-11
-1.05587e-11
-7.08411e-12
2.62901e-13
1.79767e-12
6.98464e-12
3.12639e-12
3.28271e-12
1.22853e-11
1.53833e-11
1.10347e-11
1.28182e-11
7.39675e-12
8.02913e-13
1.18661e-12
-2.06057e-13
2.25953e-12
1.94689e-12
-1.28608e-12
3.96483e-12
3.89377e-12
2.63611e-12
1.8332e-12
-1.48503e-12
1.05871e-12
6.77858e-12
-1.00187e-12
-6.23146e-12
-4.73932e-12
-6.70752e-12
-1.25198e-11
-1.22569e-11
-7.15517e-12
2.06057e-13
8.30624e-12
7.41807e-12
7.06279e-12
5.12301e-12
3.21876e-12
5.27933e-12
9.1589e-12
1.48077e-11
1.72165e-11
2.53166e-11
2.59845e-11
1.97247e-11
1.33866e-11
1.31806e-11
1.55822e-11
1.36211e-11
9.62785e-12
6.2812e-12
0
2.80664e-12
9.90497e-12
9.89786e-12
8.2423e-12
7.70939e-12
4.03588e-12
6.96332e-12
1.46017e-11
2.12239e-11
2.69864e-11
2.60982e-11
2.79456e-11
2.94307e-11
2.50608e-11
2.17071e-11
2.26876e-11
1.6712e-11
1.70886e-11
1.01963e-11
8.23519e-12
6.9349e-12
1.0381e-11
9.6918e-12
8.29914e-12
6.61515e-12
7.05569e-12
1.09424e-11
1.65343e-11
2.06981e-11
1.86873e-11
1.0921e-11
1.52127e-11
8.1144e-12
-3.55271e-14
3.46034e-12
5.41434e-12
8.27072e-12
1.6982e-12
8.22808e-12
5.30065e-12
4.11404e-12
3.98614e-12
8.10729e-12
1.18092e-11
1.39622e-11
9.54969e-12
1.12408e-11
1.66978e-11
8.5052e-12
6.89226e-13
-1.07292e-12
4.90274e-13
1.0516e-12
-3.73745e-12
-9.37206e-12
-1.74083e-12
2.21689e-12
-4.40536e-13
-4.25615e-12
-3.25429e-12
1.42109e-14
3.88667e-12
9.89075e-12
7.11964e-12
-5.61329e-13
9.73444e-13
3.95062e-12
6.47304e-12
1.90425e-12
3.51008e-12
2.64322e-12
3.24718e-12
-2.55795e-12
-4.42668e-12
-5.00222e-12
-3.76588e-12
-1.00684e-11
-1.43316e-11
-1.29674e-11
-8.65441e-12
-4.42668e-12
-8.66862e-13
4.448e-12
1.56319e-13
1.42109e-12
2.29505e-12
9.04521e-12
1.08002e-11
1.04166e-11
9.79128e-12
2.08189e-12
3.90799e-12
6.84253e-12
8.1215e-12
1.08002e-11
8.74678e-12
1.11626e-11
1.42037e-11
1.64775e-11
2.13944e-11
2.73062e-11
2.30997e-11
1.44382e-11
1.69749e-11
2.47908e-11
2.67875e-11
2.83791e-11
2.01652e-11
1.39693e-11
1.52482e-11
1.75859e-11
2.08971e-11
2.42082e-11
1.69535e-11
1.17524e-11
5.6346e-12
9.53548e-12
1.00187e-11
6.89937e-12
9.5568e-12
6.47304e-12
4.41247e-12
-6.18172e-13
8.95284e-13
3.6593e-12
5.32197e-12
1.02816e-11
1.10632e-11
1.54827e-11
1.51772e-11
8.29203e-12
5.54934e-12
5.08038e-12
-2.72138e-12
-7.00595e-12
2.41585e-13
-1.14397e-12
-9.08074e-12
-4.63274e-12
-5.66303e-12
-1.15108e-12
1.66978e-12
-4.87432e-12
-5.17275e-12
-3.86535e-12
-4.23483e-12
-7.16938e-12
-8.66862e-12
-1.02247e-11
-3.95772e-12
-3.67351e-12
-4.81748e-12
3.38218e-12
1.01039e-11
7.15517e-12
1.4353e-12
-3.34666e-12
-1.0246e-11
-8.69704e-12
-1.02602e-11
-5.48539e-12
-1.66978e-12
6.03961e-13
-9.30811e-13
-3.09086e-12
-5.69145e-12
-3.64508e-12
1.62714e-12
3.70903e-12
1.27613e-11
1.00258e-11
9.90497e-12
1.03597e-11
9.4218e-12
8.3844e-12
7.7236e-12
1.57527e-11
4.46505e-11
1.19222e-10
3.18472e-10
8.42832e-10
2.19998e-09
5.66529e-09
1.43746e-08
3.59683e-08
8.88387e-08
2.16615e-07
5.21373e-07
1.23851e-06
2.90293e-06
6.71191e-06
1.5304e-05
3.44019e-05
7.62138e-05
0.000166345
0.000357563
0.000756639
0.00157556
0.00322697
0.00649761
0.0128553
0.0249762
0.0476225
0.0890507
0.16318
0.292772
0.513825
0.881182
1.47493
2.4064
3.82137
5.89672
8.82438
12.7723
17.789
23.7292
30.4527
37.8618
45.8505
54.3054
63.1171
72.1871
81.4315
90.7813
100.181
109.587
118.964
128.286
137.532
146.683
155.728
164.654
173.454
182.12
190.647
199.03
207.265
215.35
223.281
231.057
238.676
246.138
253.44
260.583
267.566
274.388
281.049
287.549
293.888
300.065
306.081
311.936
317.629
323.161
328.531
333.739
338.785
343.668
348.388
352.945
357.337
361.564
365.622
369.519
373.232
376.801
380.149
383.394
386.372
389.247
391.917
394.325
396.719
398.703
400.655
402.416
403.801
405.22
406.359
407.196
408.045
408.679
409.058
409.401
409.675
409.784
409.796
409.846
409.851
409.834
409.799
409.802
409.777
409.734
409.68
409.628
409.589
409.554
409.528
409.517
409.511
409.495
409.477
409.465
409.454
409.436
409.414
409.398
409.404
409.394
409.379
409.368
409.353
409.332
409.316
409.299
409.276
409.255
409.236
409.21
409.174
409.15
409.134
409.097
409.074
409.055
409.019
408.994
408.976
408.95
408.888
408.812
408.75
408.71
408.683
408.656
408.574
408.368
408.196
408.097
408.057
408.084
408.389
408.713
408.764
408.642
406.947
395.958
366.618
339.468
317.662
301.791
291.031
283.718
278.8
275.913
274.627
274.051
273.515
273.028
272.996
273.417
273.465
273.003
272.904
273.334
273.539
273.29
272.94
273.055
273.502
273.541
273.018
272.92
273.307
273.528
273.255
272.904
273.024
273.49
273.493
272.912
272.816
273.298
273.539
273.18
272.792
272.838
273.353
273.396
272.758
272.661
272.993
273.309
272.921
272.557
272.579
272.998
273.03
272.368
272.298
272.412
272.746
272.269
271.817
271.836
272.041
272.29
271.1
270.903
270.978
271.445
271.008
269.475
269.377
269.733
270.54
267.641
266.794
266.799
267.512
267.639
258.53
249.56
228.381
127.464
39.937
10.5573
2.56514
0.608518
0.143601
0.0338409
0.00796996
0.00187648
0.000441744
0.000103982
2.44741e-05
5.75987e-06
1.35542e-06
3.18921e-07
7.50315e-08
1.76518e-08
4.15331e-09
9.77636e-10
2.30994e-10
5.48468e-11
1.29212e-11
2.62013e-12
-1.02673e-12
-3.22231e-12
-4.06786e-12
-2.40163e-12
-1.02318e-12
6.83897e-13
3.55271e-13
9.71667e-13
-5.40012e-13
-4.47642e-13
-1.97176e-13
-5.18696e-13
1.24345e-14
-1.20792e-12
-2.30926e-14
1.82254e-12
1.52411e-12
3.05e-12
2.68052e-12
2.7125e-12
2.75335e-12
2.76579e-12
1.55964e-12
-3.81917e-13
1.06581e-12
7.76268e-13
1.19549e-12
8.45546e-13
3.49942e-13
7.49623e-13
1.5028e-12
2.18137e-12
6.92779e-13
1.36779e-13
-1.60938e-12
-8.50875e-13
1.61648e-13
-6.85674e-13
-2.44782e-12
-9.64562e-13
-1.24345e-14
-1.27187e-12
-9.91207e-13
-2.07301e-12
-2.09255e-12
-2.41585e-12
-1.38733e-12
-9.61009e-13
9.59233e-14
1.26477e-12
1.59517e-12
2.37854e-12
1.93801e-12
1.24878e-12
-3.55271e-15
-4.13891e-13
8.08242e-13
7.99361e-13
4.95604e-13
1.49392e-12
1.49214e-12
1.14397e-12
3.21521e-13
1.45128e-12
1.52589e-12
1.29852e-12
6.30607e-13
1.65024e-12
9.59233e-13
-1.1795e-12
-3.41593e-12
-3.39462e-12
-1.18661e-12
-1.39444e-12
-1.00897e-12
-1.17772e-12
-2.92921e-12
-3.51363e-12
-2.19735e-12
-7.86926e-13
-6.60805e-13
-3.76588e-13
-1.91847e-13
-2.14939e-13
-2.11919e-12
-2.40519e-12
-2.14762e-12
-8.7752e-13
-6.92779e-13
2.06057e-13
1.65201e-13
1.45661e-13
2.18314e-12
1.18838e-12
9.02389e-13
7.6561e-13
1.77636e-13
7.01661e-13
2.41585e-13
-1.54365e-12
-1.80123e-12
-2.6894e-12
-2.5544e-12
-1.45839e-12
6.82121e-13
1.83142e-12
1.43707e-12
-5.50671e-13
-9.5568e-13
-8.7752e-13
3.48166e-13
8.10019e-13
9.04166e-13
-2.80664e-13
-1.63425e-13
-1.3145e-13
-7.08766e-13
-8.65086e-13
-1.44773e-12
-2.44249e-12
-2.87947e-12
-1.23457e-12
-8.20677e-13
-1.11378e-12
-1.01252e-13
-5.47118e-13
-3.35199e-12
-5.56e-12
-4.58122e-12
-2.53308e-12
-1.3145e-12
6.98108e-13
2.28617e-12
8.22453e-13
2.66454e-14
-1.47082e-12
-2.78888e-12
-1.88649e-12
-7.28306e-13
2.27374e-13
-1.43885e-13
-1.03029e-13
-1.38201e-12
-2.55795e-12
-1.37845e-12
-3.30402e-13
8.02913e-13
6.66134e-13
6.92779e-13
-1.36779e-12
-4.40536e-13
-1.27898e-13
8.65086e-13
9.166e-13
-7.14095e-13
-9.46798e-13
-1.73905e-12
-1.03562e-12
2.93099e-13
2.30926e-13
5.20473e-13
8.26006e-13
-1.20437e-12
-1.23457e-12
8.84626e-13
2.6219e-12
4.10871e-12
4.68958e-12
3.78542e-12
3.38929e-12
4.17444e-12
6.19416e-12
5.68434e-12
5.81046e-12
3.66285e-12
1.803e-12
-2.07834e-13
-2.20268e-12
-2.23999e-12
-3.07487e-12
-2.77822e-12
-1.74616e-12
-1.60583e-12
-5.50671e-14
5.45342e-13
1.75859e-13
-1.06226e-12
-1.98774e-12
-2.48157e-12
-3.38041e-12
-2.42473e-12
-6.21725e-14
-6.98108e-13
-8.66862e-13
-1.50102e-12
-2.48157e-12
-3.87246e-13
2.09965e-12
9.18376e-13
1.48326e-12
9.52127e-13
-2.50466e-13
-3.6593e-13
-1.10134e-12
-1.35181e-12
-1.08002e-12
-2.14584e-12
-3.0127e-12
-2.83684e-12
-4.04299e-12
-4.19043e-12
-6.27587e-12
-6.69864e-12
-5.51914e-12
-5.19051e-12
-6.58673e-12
-6.20304e-12
-4.11049e-12
-4.04476e-12
-2.18847e-12
-1.1422e-12
-2.16716e-13
6.85674e-13
-7.37188e-13
-7.51399e-13
6.51923e-13
9.46798e-13
9.21929e-13
-1.66978e-13
-7.14095e-13
-6.75016e-14
-5.80869e-13
-1.08891e-12
-2.96829e-12
-3.50298e-12
-1.31095e-12
6.34159e-13
1.35181e-12
9.50351e-13
1.13687e-13
7.78044e-13
7.08766e-13
-5.32907e-15
6.03961e-13
8.11795e-13
5.41789e-13
2.12985e-12
4.14957e-12
3.64331e-12
2.27374e-12
9.92983e-13
2.25064e-12
2.47091e-12
2.64677e-12
2.48157e-12
2.72848e-12
2.89369e-12
3.20455e-12
3.68239e-12
2.11742e-12
6.85674e-13
8.50875e-13
1.08535e-12
2.36433e-12
2.50822e-12
3.91509e-12
5.28289e-12
3.81206e-12
5.2065e-12
6.32028e-12
6.0485e-12
5.65947e-12
5.90461e-12
5.21005e-12
4.73044e-12
6.38778e-12
5.10347e-12
4.24016e-12
3.9666e-12
4.72689e-12
2.47447e-12
2.08189e-12
2.43183e-12
2.92033e-12
1.89893e-12
1.00719e-12
1.27898e-12
2.30926e-12
2.71783e-12
6.64357e-13
-9.68114e-13
-2.00728e-12
-3.35199e-12
-3.12106e-12
-2.01972e-12
-2.70006e-13
-6.91003e-13
6.43041e-13
1.19016e-12
1.96287e-12
3.02869e-12
1.92024e-12
1.33404e-12
-5.32907e-14
9.166e-13
7.81597e-13
7.58504e-13
2.43361e-12
2.63256e-12
2.46736e-12
9.07718e-13
-3.42837e-13
2.23821e-13
8.34888e-13
8.66862e-13
9.07718e-13
-5.66658e-13
-7.24754e-13
1.08891e-12
1.6751e-12
2.8777e-13
-4.3876e-13
3.62377e-13
9.39693e-13
3.92575e-13
2.33058e-12
8.73968e-13
2.28795e-12
4.14246e-12
6.24212e-12
6.86029e-12
6.18705e-12
5.86731e-12
5.62572e-12
6.93845e-12
8.15525e-12
7.80886e-12
7.43405e-12
7.09477e-12
8.57803e-12
8.7006e-12
1.0008e-11
9.90674e-12
9.56568e-12
1.14131e-11
1.12248e-11
1.29248e-11
1.18288e-11
1.33298e-11
1.35554e-11
1.41469e-11
1.41895e-11
1.25233e-11
1.28662e-11
1.45572e-11
1.54543e-11
1.53921e-11
1.53069e-11
)
;

boundaryField
{
    sides
    {
        type            calculated;
        value           nonuniform List<scalar> 2(1.46983e-11 3.94941e-11);
    }
    empty
    {
        type            empty;
        value           nonuniform 0();
    }
}


// ************************************************************************* //
