/*--------------------------------*- C++ -*----------------------------------*\
| =========                 |                                                 |
| \\      /  F ield         | OpenFOAM: The Open Source CFD Toolbox           |
|  \\    /   O peration     | Version:  4.1                                   |
|   \\  /    A nd           | Web:      www.OpenFOAM.org                      |
|    \\/     M anipulation  |                                                 |
\*---------------------------------------------------------------------------*/
FoamFile
{
    version     2.0;
    format      ascii;
    class       volScalarField;
    location    "0.0022";
    object      T;
}
// * * * * * * * * * * * * * * * * * * * * * * * * * * * * * * * * * * * * * //

dimensions      [0 0 0 1 0 0 0];

internalField   nonuniform List<scalar> 
1000
(
400
400
400
400
400
400
400
400
400
400
400
400
400
400
400
400
400
400
400
400
400
400
400
400
400
400
400
400
400
400
400
400
400
400
400
400
400
400
400
400
400
400
400
400
400
400
400
400
400
400
400
400
400
400
400
400
400
400
400
400
400
400
400
400
400
400
400
400
400
400
400
400
400
400
400
400
400
400
400
400
400
400
400
400
400
400
400
400
400
400
400
400
400
400
400
400
400
400
400
400
400
400
400
400
400
400
400
400
400
400
400
400
400
400
400
400
400
400
400
400
400
400
400
400
400
400
400
400
400
400
400
400
400
400
400
400
400
400
400
400
400
400
400
400
400
400
400
400
400
400
400
400
400
400
400
400
400
400
400
400
400
400
400
400
400
400
400
400
400
400
400
400
400
400
400
400
400
400
400
400
400
400
400
400
400
400
400
400
400
400
400
400
400
400
400
400
400
400
400
400
400
400
400
400
400
400
400
400
400
400
400
400
400
400
400
400
400
400
400
400
400
400
400
400
400
400
400
400
400
400
400
400
400
400
400
400
400
400
400
400
400
400
400
400
400
400
400
400
400
400
400
400
400
400
400
400
400
400
400
400
400
400
400
400
400
400
400
400
400
400
400
400
400
400
400
400
400
400
400
400
400
400
400
400
400
400
400
400
400
400
400
400
400
400
400
400
400
400
400
400
400
400
400
400
400
400
400
400
400
400
400
400
400
400
400
400
400
400
400
400
400
400
400
400
400
400
400
400
400
400
400
400
400
400
400
400
400
400
400
400
400
400
400
400
400
400
400
400
400
400
400
400
400
400
400
400
400
400
400
400
400
400
400
400
400
400
400
400
400
400
400
400
400
400
400
400
400
400
400
400
400
400
400
400
400
400
400
400
400
400
400
400
399.999
399.999
399.998
399.996
399.993
399.986
399.975
399.956
399.924
399.871
399.786
399.655
399.458
399.174
398.78
398.262
397.622
396.878
396.039
395.115
394.116
393.055
391.942
390.786
389.596
388.378
387.138
385.88
384.607
383.323
382.029
380.728
379.42
378.108
376.792
375.473
374.152
372.831
371.508
370.186
368.865
367.544
366.226
364.909
363.596
362.286
360.979
359.677
358.379
357.086
355.8
354.52
353.246
351.981
350.724
349.476
348.238
347.011
345.797
344.595
343.408
342.236
341.083
339.945
338.836
337.729
336.693
335.588
334.696
333.523
332.857
331.623
331.071
330.063
329.296
328.774
327.844
327.424
326.925
326.257
326.024
325.693
325.274
325.157
325.044
324.838
324.775
324.784
324.764
324.74
324.743
324.763
324.774
324.781
324.789
324.813
324.849
324.859
324.871
324.896
324.908
324.911
324.919
324.934
324.942
324.945
324.951
324.964
324.975
324.979
324.988
325.003
325.014
325.02
325.035
325.048
325.056
325.07
325.087
325.098
325.11
325.13
325.152
325.167
325.177
325.195
325.228
325.263
325.286
325.298
325.311
325.341
325.401
325.458
325.496
325.514
325.529
325.567
325.689
325.847
325.956
326.001
325.997
325.891
325.614
325.432
325.402
325.941
330.41
348.383
377.988
406.309
430.797
450.249
464.447
474.019
479.987
483.486
485.418
486.36
486.721
486.845
486.918
486.952
486.911
486.825
486.808
486.852
486.854
486.785
486.752
486.79
486.826
486.801
486.736
486.734
486.792
486.801
486.737
486.707
486.747
486.787
486.75
486.683
486.685
486.75
486.759
486.679
486.646
486.677
486.726
486.691
486.611
486.605
486.657
486.667
486.578
486.547
486.558
486.596
486.55
486.476
486.46
486.476
486.488
486.369
486.309
486.298
486.327
486.27
486.09
486.064
486.065
486.076
485.853
485.715
485.652
485.616
485.55
485.112
484.921
484.805
484.759
484.073
481.833
478.319
470.575
427.903
408.084
402.027
400.485
400.115
400.027
400.006
400.001
400
400
400
400
400
400
400
400
400
400
400
400
400
400
400
400
400
400
400
400
400
400
400
400
400
400
400
400
400
400
400
400
400
400
400
400
400
400
400
400
400
400
400
400
400
400
400
400
400
400
400
400
400
400
400
400
400
400
400
400
400
400
400
400
400
400
400
400
400
400
400
400
400
400
400
400
400
400
400
400
400
400
400
400
400
400
400
400
400
400
400
400
400
400
400
400
400
400
400
400
400
400
400
400
400
400
400
400
400
400
400
400
400
400
400
400
400
400
400
400
400
400
400
400
400
400
400
400
400
400
400
400
400
400
400
400
400
400
400
400
400
400
400
400
400
400
400
400
400
400
400
400
400
400
400
400
400
400
400
400
400
400
400
400
400
400
400
400
400
400
400
400
400
400
400
400
400
400
400
400
400
400
400
400
400
400
400
400
400
400
400
400
400
400
400
400
400
400
400
400
400
400
400
400
400
400
400
400
400
400
400
400
400
400
400
400
400
400
400
400
400
400
400
400
400
400
400
400
400
400
400
400
400
400
400
400
400
400
400
400
400
400
400
400
400
400
400
400
400
400
400
400
400
400
400
400
400
400
400
400
400
400
400
400
400
400
400
400
400
400
400
400
400
400
400
400
400
400
400
400
400
400
400
400
400
400
400
400
400
400
400
400
400
400
400
400
400
400
400
400
400
400
400
400
400
400
400
400
400
400
400
400
400
400
400
400
400
400
400
400
400
400
400
400
400
400
400
400
400
400
400
400
400
400
400
400
400
400
400
400
400
400
400
400
400
400
400
400
400
400
400
400
400
400
400
400
400
400
400
400
400
400
400
400
400
400
400
400
400
400
400
400
400
)
;

boundaryField
{
    sides
    {
        type            zeroGradient;
    }
    empty
    {
        type            empty;
    }
}


// ************************************************************************* //
