/*--------------------------------*- C++ -*----------------------------------*\
| =========                 |                                                 |
| \\      /  F ield         | OpenFOAM: The Open Source CFD Toolbox           |
|  \\    /   O peration     | Version:  4.1                                   |
|   \\  /    A nd           | Web:      www.OpenFOAM.org                      |
|    \\/     M anipulation  |                                                 |
\*---------------------------------------------------------------------------*/
FoamFile
{
    version     2.0;
    format      ascii;
    class       volVectorField;
    location    "0.0022";
    object      U;
}
// * * * * * * * * * * * * * * * * * * * * * * * * * * * * * * * * * * * * * //

dimensions      [0 1 -1 0 0 0 0];

internalField   nonuniform List<vector> 
1000
(
(-1.13506e-11 0 0)
(-1.20381e-11 0 0)
(-1.58785e-11 0 0)
(-1.46672e-11 0 0)
(-1.38279e-11 0 0)
(-1.62971e-11 0 0)
(-1.75436e-11 0 0)
(-1.86612e-11 0 0)
(-1.67904e-11 0 0)
(-1.77852e-11 0 0)
(-1.61459e-11 0 0)
(-1.76186e-11 0 0)
(-1.68638e-11 0 0)
(-1.8227e-11 0 0)
(-1.65728e-11 0 0)
(-1.77875e-11 0 0)
(-1.72542e-11 0 0)
(-1.88936e-11 0 0)
(-1.45574e-11 0 0)
(-1.51651e-11 0 0)
(-1.15234e-11 0 0)
(-1.21448e-11 0 0)
(-1.12641e-11 0 0)
(-1.1837e-11 0 0)
(-6.97656e-12 0 0)
(-8.63079e-12 0 0)
(-3.67229e-12 0 0)
(-5.80164e-12 0 0)
(-4.22365e-12 0 0)
(-5.07815e-12 0 0)
(-6.94127e-12 0 0)
(-9.19001e-12 0 0)
(-1.03251e-11 0 0)
(-1.04392e-11 0 0)
(-1.37755e-11 0 0)
(-8.90561e-12 0 0)
(-9.94794e-12 0 0)
(-4.87437e-12 0 0)
(-6.72513e-12 0 0)
(-2.4238e-12 0 0)
(-6.32529e-12 0 0)
(2.62574e-13 0 0)
(-5.40619e-12 0 0)
(-6.92992e-13 0 0)
(-3.60399e-12 0 0)
(-1.89355e-12 0 0)
(-3.96384e-12 0 0)
(-6.46166e-12 0 0)
(-3.64227e-12 0 0)
(-3.49953e-12 0 0)
(-3.94871e-12 0 0)
(-3.15135e-12 0 0)
(-2.76383e-12 0 0)
(-3.93114e-12 0 0)
(-5.65165e-12 0 0)
(-4.91716e-12 0 0)
(-2.30878e-12 0 0)
(-1.60259e-12 0 0)
(2.43969e-12 0 0)
(-3.62625e-12 0 0)
(-6.7788e-13 0 0)
(-2.55149e-12 0 0)
(-5.19983e-13 0 0)
(-9.79569e-13 0 0)
(-5.72214e-13 0 0)
(-4.85351e-13 0 0)
(3.69706e-13 0 0)
(-2.63941e-12 0 0)
(-2.01275e-13 0 0)
(-5.3208e-13 0 0)
(3.11438e-12 0 0)
(3.3909e-12 0 0)
(6.44298e-12 0 0)
(4.95819e-12 0 0)
(9.01047e-12 0 0)
(6.83645e-12 0 0)
(8.5025e-12 0 0)
(8.25801e-12 0 0)
(9.43176e-12 0 0)
(7.60487e-12 0 0)
(6.00584e-12 0 0)
(4.04883e-12 0 0)
(3.56307e-12 0 0)
(4.36491e-12 0 0)
(2.0593e-12 0 0)
(2.74318e-12 0 0)
(4.22254e-12 0 0)
(5.53587e-12 0 0)
(3.04232e-12 0 0)
(6.77888e-12 0 0)
(6.4846e-12 0 0)
(1.02029e-11 0 0)
(5.82054e-12 0 0)
(9.39954e-12 0 0)
(1.03292e-11 0 0)
(1.28672e-11 0 0)
(9.90364e-12 0 0)
(1.04648e-11 0 0)
(9.38326e-12 0 0)
(7.18425e-12 0 0)
(7.78618e-12 0 0)
(8.11083e-12 0 0)
(7.60183e-12 0 0)
(5.15375e-12 0 0)
(5.56226e-12 0 0)
(4.44534e-12 0 0)
(3.93882e-12 0 0)
(1.76657e-12 0 0)
(2.84888e-12 0 0)
(2.92173e-12 0 0)
(2.73102e-12 0 0)
(5.89601e-12 0 0)
(4.05841e-12 0 0)
(2.99172e-12 0 0)
(3.9045e-12 0 0)
(5.71956e-12 0 0)
(2.39398e-12 0 0)
(2.52321e-12 0 0)
(2.98823e-12 0 0)
(3.55273e-12 0 0)
(5.15139e-12 0 0)
(5.61682e-12 0 0)
(5.31393e-12 0 0)
(7.36075e-12 0 0)
(7.00349e-12 0 0)
(6.51451e-12 0 0)
(4.31381e-12 0 0)
(4.02665e-12 0 0)
(1.51654e-12 0 0)
(3.03188e-12 0 0)
(1.43801e-12 0 0)
(2.4965e-12 0 0)
(3.97905e-12 0 0)
(5.58495e-12 0 0)
(3.91337e-12 0 0)
(3.94985e-12 0 0)
(1.56906e-12 0 0)
(-3.12709e-13 0 0)
(-2.65139e-13 0 0)
(-3.72669e-12 0 0)
(-3.84944e-12 0 0)
(-2.88432e-12 0 0)
(-3.61075e-12 0 0)
(-1.871e-13 0 0)
(3.15624e-13 0 0)
(8.42544e-13 0 0)
(2.74461e-12 0 0)
(-5.8382e-13 0 0)
(2.28818e-12 0 0)
(4.43187e-12 0 0)
(4.29988e-12 0 0)
(2.30353e-12 0 0)
(4.84608e-12 0 0)
(-7.92146e-13 0 0)
(1.31667e-12 0 0)
(-5.39416e-13 0 0)
(3.63111e-13 0 0)
(1.00665e-12 0 0)
(-6.20023e-14 0 0)
(-5.02571e-13 0 0)
(2.53479e-12 0 0)
(-1.1553e-13 0 0)
(1.56936e-12 0 0)
(-5.27442e-13 0 0)
(-6.64398e-13 0 0)
(1.69886e-12 0 0)
(1.26353e-12 0 0)
(-1.611e-12 0 0)
(-1.73992e-12 0 0)
(-8.71074e-13 0 0)
(-3.48317e-12 0 0)
(-3.13518e-12 0 0)
(-3.6902e-12 0 0)
(-8.35732e-13 0 0)
(1.05928e-12 0 0)
(3.26588e-12 0 0)
(1.0859e-12 0 0)
(2.79681e-12 0 0)
(5.2358e-13 0 0)
(1.3067e-12 0 0)
(1.35297e-12 0 0)
(4.18246e-12 0 0)
(4.54214e-12 0 0)
(5.89957e-12 0 0)
(8.1572e-12 0 0)
(7.22639e-12 0 0)
(3.40592e-12 0 0)
(4.81971e-12 0 0)
(3.44439e-12 0 0)
(4.51964e-12 0 0)
(3.84083e-12 0 0)
(2.29516e-12 0 0)
(7.35543e-13 0 0)
(-6.78494e-13 0 0)
(2.48974e-12 0 0)
(2.72037e-12 0 0)
(2.83529e-12 0 0)
(1.78126e-12 0 0)
(3.30089e-12 0 0)
(-1.28236e-12 0 0)
(5.35138e-12 0 0)
(2.93456e-12 0 0)
(8.84225e-12 0 0)
(7.14742e-12 0 0)
(7.68176e-12 0 0)
(8.65218e-12 0 0)
(7.71241e-12 0 0)
(6.68661e-12 0 0)
(6.44299e-12 0 0)
(5.87704e-12 0 0)
(4.55436e-12 0 0)
(4.51055e-12 0 0)
(1.81348e-12 0 0)
(2.54176e-12 0 0)
(1.77962e-12 0 0)
(4.30211e-12 0 0)
(9.17461e-13 0 0)
(4.02604e-12 0 0)
(1.46686e-13 0 0)
(3.66274e-12 0 0)
(2.26586e-12 0 0)
(7.54782e-12 0 0)
(4.78924e-12 0 0)
(5.09937e-12 0 0)
(1.71986e-12 0 0)
(6.75854e-12 0 0)
(-1.97079e-12 0 0)
(1.90475e-12 0 0)
(3.98548e-13 0 0)
(2.83504e-12 0 0)
(1.33015e-12 0 0)
(-9.1956e-14 0 0)
(4.37482e-12 0 0)
(-8.31158e-13 0 0)
(2.59284e-12 0 0)
(2.78929e-13 0 0)
(4.01447e-12 0 0)
(3.15286e-12 0 0)
(4.29454e-12 0 0)
(1.4341e-12 0 0)
(5.49759e-12 0 0)
(3.49497e-12 0 0)
(1.5422e-12 0 0)
(-1.17347e-12 0 0)
(3.44848e-13 0 0)
(5.90425e-14 0 0)
(4.80975e-13 0 0)
(-2.98166e-12 0 0)
(-1.78599e-12 0 0)
(5.76924e-13 0 0)
(9.72012e-13 0 0)
(-1.33359e-12 0 0)
(-8.96562e-13 0 0)
(-8.92087e-13 0 0)
(8.57364e-13 0 0)
(1.68957e-12 0 0)
(3.53369e-12 0 0)
(2.51281e-13 0 0)
(-4.10645e-13 0 0)
(6.9881e-13 0 0)
(2.04973e-12 0 0)
(9.11426e-13 0 0)
(7.03005e-13 0 0)
(6.2417e-13 0 0)
(1.38308e-12 0 0)
(1.00754e-13 0 0)
(-1.29083e-12 0 0)
(-1.69524e-12 0 0)
(-6.22782e-13 0 0)
(-2.02074e-12 0 0)
(-3.19735e-12 0 0)
(-5.02027e-12 0 0)
(-3.02995e-12 0 0)
(-1.17148e-12 0 0)
(-1.97423e-12 0 0)
(1.75652e-12 0 0)
(1.49082e-13 0 0)
(1.33101e-13 0 0)
(2.35815e-13 0 0)
(1.69072e-12 0 0)
(2.60521e-12 0 0)
(3.73133e-12 0 0)
(2.61732e-12 0 0)
(2.50702e-12 0 0)
(-1.01755e-12 0 0)
(2.81905e-12 0 0)
(1.49698e-12 0 0)
(3.46699e-12 0 0)
(2.49497e-12 0 0)
(2.34782e-12 0 0)
(3.90353e-12 0 0)
(4.65884e-12 0 0)
(5.24993e-12 0 0)
(7.37504e-12 0 0)
(7.30859e-12 0 0)
(5.91856e-12 0 0)
(3.04954e-12 0 0)
(6.09444e-12 0 0)
(8.45196e-12 0 0)
(7.39534e-12 0 0)
(8.35382e-12 0 0)
(3.34218e-12 0 0)
(5.12515e-12 0 0)
(3.48209e-12 0 0)
(6.30586e-12 0 0)
(6.28229e-12 0 0)
(6.75664e-12 0 0)
(3.84999e-12 0 0)
(2.26227e-12 0 0)
(1.30169e-12 0 0)
(3.9468e-12 0 0)
(2.0704e-12 0 0)
(2.02727e-12 0 0)
(2.99048e-12 0 0)
(1.21033e-12 0 0)
(1.05922e-12 0 0)
(-1.33113e-12 0 0)
(1.73657e-12 0 0)
(5.45961e-13 0 0)
(2.60778e-12 0 0)
(2.97496e-12 0 0)
(3.77459e-12 0 0)
(4.7584e-12 0 0)
(4.00029e-12 0 0)
(9.69716e-13 0 0)
(2.19027e-12 0 0)
(7.06794e-13 0 0)
(-2.45991e-12 0 0)
(-1.15917e-12 0 0)
(1.32952e-12 0 0)
(-2.17507e-12 0 0)
(-2.42132e-12 0 0)
(-6.50034e-13 0 0)
(-2.42149e-12 0 0)
(1.87572e-12 0 0)
(-1.08223e-12 0 0)
(-1.67852e-12 0 0)
(-9.22279e-13 0 0)
(-1.09177e-12 0 0)
(-1.85943e-12 0 0)
(-1.88988e-12 0 0)
(-2.77287e-12 0 0)
(-2.74126e-12 0 0)
(9.67619e-14 0 0)
(-2.09932e-12 0 0)
(-4.09144e-13 0 0)
(2.47864e-12 0 0)
(3.00446e-12 0 0)
(5.97907e-13 0 0)
(6.31848e-13 0 0)
(-3.15912e-12 0 0)
(-1.95796e-12 0 0)
(-3.54274e-12 0 0)
(-1.8586e-12 0 0)
(-1.68029e-12 0 0)
(7.19966e-13 0 0)
(-2.47018e-13 0 0)
(-3.89825e-13 0 0)
(-1.15318e-12 0 0)
(-2.49194e-12 0 0)
(5.82529e-13 0 0)
(1.14661e-13 0 0)
(2.46064e-12 0 0)
(4.15887e-12 0 0)
(2.0528e-12 0 0)
(3.34972e-12 0 0)
(2.5932e-12 0 0)
(2.46689e-12 0 0)
(2.82332e-12 0 0)
(2.07353e-12 0 0)
(7.8521e-12 0 0)
(1.99849e-11 0 0)
(5.37831e-11 0 0)
(1.44211e-10 0 0)
(3.78221e-10 0 0)
(9.82752e-10 0 0)
(2.51688e-09 0 0)
(6.34854e-09 0 0)
(1.57997e-08 0 0)
(3.88198e-08 0 0)
(9.41521e-08 0 0)
(2.25398e-07 0 0)
(5.3248e-07 0 0)
(1.24104e-06 0 0)
(2.85286e-06 0 0)
(6.46632e-06 0 0)
(1.4447e-05 0 0)
(3.18053e-05 0 0)
(6.89707e-05 0 0)
(0.000147268 0 0)
(0.000309492 0 0)
(0.000639885 0 0)
(0.00130094 0 0)
(0.00259953 0 0)
(0.00510238 0 0)
(0.00983162 0 0)
(0.0185851 0 0)
(0.0344406 0 0)
(0.0625163 0 0)
(0.111056 0 0)
(0.192878 0 0)
(0.327142 0 0)
(0.541216 0 0)
(0.872147 0 0)
(1.36685 0 0)
(2.0795 0 0)
(3.06347 0 0)
(4.35199 0 0)
(5.93897 0 0)
(7.79418 0 0)
(9.89032 0 0)
(12.2036 0 0)
(14.7076 0 0)
(17.3749 0 0)
(20.1789 0 0)
(23.0961 0 0)
(26.1063 0 0)
(29.1927 0 0)
(32.342 0 0)
(35.5434 0 0)
(38.7881 0 0)
(42.0691 0 0)
(45.3808 0 0)
(48.7186 0 0)
(52.0785 0 0)
(55.4573 0 0)
(58.8521 0 0)
(62.2607 0 0)
(65.6807 0 0)
(69.1103 0 0)
(72.5477 0 0)
(75.9915 0 0)
(79.4399 0 0)
(82.8918 0 0)
(86.3456 0 0)
(89.8001 0 0)
(93.2539 0 0)
(96.7058 0 0)
(100.154 0 0)
(103.598 0 0)
(107.036 0 0)
(110.467 0 0)
(113.888 0 0)
(117.299 0 0)
(120.698 0 0)
(124.082 0 0)
(127.45 0 0)
(130.799 0 0)
(134.128 0 0)
(137.433 0 0)
(140.712 0 0)
(143.962 0 0)
(147.179 0 0)
(150.359 0 0)
(153.499 0 0)
(156.593 0 0)
(159.637 0 0)
(162.625 0 0)
(165.552 0 0)
(168.409 0 0)
(171.192 0 0)
(173.887 0 0)
(176.495 0 0)
(178.996 0 0)
(181.388 0 0)
(183.659 0 0)
(185.794 0 0)
(187.792 0 0)
(189.633 0 0)
(191.31 0 0)
(192.82 0 0)
(194.147 0 0)
(195.294 0 0)
(196.261 0 0)
(197.048 0 0)
(197.671 0 0)
(198.138 0 0)
(198.465 0 0)
(198.686 0 0)
(198.809 0 0)
(198.863 0 0)
(198.883 0 0)
(198.887 0 0)
(198.886 0 0)
(198.878 0 0)
(198.861 0 0)
(198.826 0 0)
(198.778 0 0)
(198.726 0 0)
(198.676 0 0)
(198.638 0 0)
(198.615 0 0)
(198.601 0 0)
(198.594 0 0)
(198.59 0 0)
(198.586 0 0)
(198.584 0 0)
(198.581 0 0)
(198.579 0 0)
(198.577 0 0)
(198.575 0 0)
(198.575 0 0)
(198.575 0 0)
(198.575 0 0)
(198.575 0 0)
(198.574 0 0)
(198.573 0 0)
(198.571 0 0)
(198.57 0 0)
(198.569 0 0)
(198.567 0 0)
(198.565 0 0)
(198.564 0 0)
(198.562 0 0)
(198.56 0 0)
(198.558 0 0)
(198.557 0 0)
(198.555 0 0)
(198.554 0 0)
(198.554 0 0)
(198.553 0 0)
(198.552 0 0)
(198.551 0 0)
(198.55 0 0)
(198.548 0 0)
(198.547 0 0)
(198.546 0 0)
(198.544 0 0)
(198.543 0 0)
(198.544 0 0)
(198.543 0 0)
(198.541 0 0)
(198.539 0 0)
(198.537 0 0)
(198.535 0 0)
(198.536 0 0)
(198.549 0 0)
(198.571 0 0)
(198.613 0 0)
(198.724 0 0)
(198.944 0 0)
(198.991 0 0)
(198.775 0 0)
(198.578 0 0)
(198.466 0 0)
(198.452 0 0)
(198.483 0 0)
(198.495 0 0)
(198.484 0 0)
(198.488 0 0)
(198.522 0 0)
(198.539 0 0)
(198.512 0 0)
(198.484 0 0)
(198.502 0 0)
(198.531 0 0)
(198.512 0 0)
(198.469 0 0)
(198.466 0 0)
(198.502 0 0)
(198.512 0 0)
(198.474 0 0)
(198.446 0 0)
(198.472 0 0)
(198.506 0 0)
(198.486 0 0)
(198.44 0 0)
(198.435 0 0)
(198.468 0 0)
(198.474 0 0)
(198.43 0 0)
(198.397 0 0)
(198.419 0 0)
(198.445 0 0)
(198.412 0 0)
(198.354 0 0)
(198.347 0 0)
(198.379 0 0)
(198.377 0 0)
(198.315 0 0)
(198.263 0 0)
(198.269 0 0)
(198.287 0 0)
(198.243 0 0)
(198.167 0 0)
(198.135 0 0)
(198.144 0 0)
(198.122 0 0)
(198.039 0 0)
(197.965 0 0)
(197.941 0 0)
(197.924 0 0)
(197.847 0 0)
(197.739 0 0)
(197.665 0 0)
(197.621 0 0)
(197.548 0 0)
(197.408 0 0)
(197.268 0 0)
(197.171 0 0)
(197.088 0 0)
(196.929 0 0)
(196.699 0 0)
(196.504 0 0)
(196.361 0 0)
(196.187 0 0)
(195.869 0 0)
(195.508 0 0)
(195.22 0 0)
(194.979 0 0)
(194.61 0 0)
(194.031 0 0)
(193.372 0 0)
(192.708 0 0)
(191.98 0 0)
(190.205 0 0)
(185.904 0 0)
(175.822 0 0)
(142.272 0 0)
(73.3791 0 0)
(21.2794 0 0)
(5.41243 0 0)
(1.30094 0 0)
(0.308038 0 0)
(0.0726598 0 0)
(0.0171172 0 0)
(0.0040306 0 0)
(0.000948896 0 0)
(0.000223366 0 0)
(5.25752e-05 0 0)
(1.23738e-05 0 0)
(2.91192e-06 0 0)
(6.85184e-07 0 0)
(1.61206e-07 0 0)
(3.79252e-08 0 0)
(8.92282e-09 0 0)
(2.09996e-09 0 0)
(4.94917e-10 0 0)
(1.17386e-10 0 0)
(2.81748e-11 0 0)
(6.23922e-12 0 0)
(7.81417e-13 0 0)
(-2.82061e-12 0 0)
(-5.16232e-12 0 0)
(-3.20612e-12 0 0)
(-3.07749e-12 0 0)
(1.23281e-12 0 0)
(-8.67752e-14 0 0)
(1.17614e-12 0 0)
(9.05475e-13 0 0)
(-2.31666e-12 0 0)
(1.40634e-12 0 0)
(-1.91264e-12 0 0)
(6.34232e-13 0 0)
(-5.71698e-13 0 0)
(-2.49337e-12 0 0)
(2.47358e-12 0 0)
(1.41636e-12 0 0)
(2.33964e-12 0 0)
(4.18524e-12 0 0)
(2.51046e-12 0 0)
(3.80615e-12 0 0)
(2.30517e-12 0 0)
(4.35202e-12 0 0)
(-1.26532e-12 0 0)
(6.36531e-13 0 0)
(1.53127e-12 0 0)
(4.56968e-13 0 0)
(2.10166e-12 0 0)
(-3.2095e-13 0 0)
(1.31676e-12 0 0)
(2.18409e-13 0 0)
(3.50094e-12 0 0)
(1.03348e-12 0 0)
(8.59517e-13 0 0)
(-6.84027e-13 0 0)
(-2.59116e-12 0 0)
(6.17783e-13 0 0)
(-2.50563e-13 0 0)
(-1.51142e-12 0 0)
(-3.71868e-12 0 0)
(1.12675e-12 0 0)
(-1.08962e-12 0 0)
(-1.49353e-12 0 0)
(-1.17889e-12 0 0)
(-3.22037e-12 0 0)
(-2.18492e-12 0 0)
(-2.98118e-12 0 0)
(-5.89888e-14 0 0)
(-2.35206e-12 0 0)
(2.67474e-12 0 0)
(2.33873e-13 0 0)
(3.35488e-12 0 0)
(1.94011e-12 0 0)
(2.14076e-12 0 0)
(1.17125e-12 0 0)
(-1.26077e-12 0 0)
(4.56533e-13 0 0)
(1.75235e-12 0 0)
(-3.00529e-13 0 0)
(1.62168e-12 0 0)
(1.54625e-12 0 0)
(2.37122e-12 0 0)
(-1.96722e-13 0 0)
(1.12537e-12 0 0)
(1.9186e-12 0 0)
(1.90114e-12 0 0)
(7.31749e-13 0 0)
(9.76383e-13 0 0)
(2.42694e-12 0 0)
(1.49758e-14 0 0)
(-2.93745e-12 0 0)
(-4.47447e-12 0 0)
(-2.56849e-12 0 0)
(-7.36638e-13 0 0)
(-1.99158e-12 0 0)
(-2.79397e-13 0 0)
(-2.93333e-12 0 0)
(-3.59197e-12 0 0)
(-4.48413e-12 0 0)
(-6.54276e-13 0 0)
(-8.42531e-13 0 0)
(-4.07654e-13 0 0)
(-8.34474e-13 0 0)
(5.77295e-13 0 0)
(-1.09879e-12 0 0)
(-3.43811e-12 0 0)
(-2.24741e-12 0 0)
(-3.09714e-12 0 0)
(8.88341e-13 0 0)
(-2.27862e-12 0 0)
(2.84114e-12 0 0)
(-2.5581e-12 0 0)
(3.00649e-12 0 0)
(1.3294e-12 0 0)
(1.94201e-12 0 0)
(-2.29431e-13 0 0)
(2.21578e-12 0 0)
(-1.86269e-12 0 0)
(3.53636e-12 0 0)
(-3.01245e-12 0 0)
(-8.92862e-13 0 0)
(-2.68586e-12 0 0)
(-3.42897e-12 0 0)
(-2.95925e-12 0 0)
(-2.50753e-14 0 0)
(1.4058e-12 0 0)
(2.75466e-12 0 0)
(5.90603e-13 0 0)
(-1.71932e-12 0 0)
(-5.30694e-13 0 0)
(-1.40988e-12 0 0)
(2.0338e-12 0 0)
(1.9265e-13 0 0)
(1.72309e-12 0 0)
(-2.49821e-12 0 0)
(2.19596e-12 0 0)
(-2.3922e-12 0 0)
(4.24503e-13 0 0)
(-2.18166e-12 0 0)
(-1.31777e-12 0 0)
(-4.3528e-12 0 0)
(-1.72278e-12 0 0)
(-1.42795e-12 0 0)
(-5.52989e-13 0 0)
(-1.70575e-12 0 0)
(1.37658e-12 0 0)
(-2.43868e-12 0 0)
(-5.65254e-12 0 0)
(-6.57386e-12 0 0)
(-3.81779e-12 0 0)
(-2.46631e-12 0 0)
(-3.26828e-13 0 0)
(2.13415e-12 0 0)
(2.49867e-12 0 0)
(-1.31799e-13 0 0)
(9.97423e-14 0 0)
(-3.56323e-12 0 0)
(-3.12879e-12 0 0)
(-5.84595e-13 0 0)
(-1.35012e-12 0 0)
(1.7982e-12 0 0)
(-2.1057e-12 0 0)
(1.82581e-12 0 0)
(-4.75425e-12 0 0)
(-6.96981e-13 0 0)
(-2.95029e-12 0 0)
(2.38174e-12 0 0)
(-8.48285e-13 0 0)
(2.724e-12 0 0)
(-1.41219e-12 0 0)
(-1.42974e-12 0 0)
(2.28669e-13 0 0)
(-4.20653e-13 0 0)
(2.20686e-12 0 0)
(-2.52315e-13 0 0)
(-1.10572e-12 0 0)
(-1.53112e-12 0 0)
(-1.84187e-12 0 0)
(-9.97433e-13 0 0)
(1.79309e-12 0 0)
(-1.1712e-12 0 0)
(2.60199e-12 0 0)
(-1.04763e-12 0 0)
(-1.39604e-12 0 0)
(-1.18308e-12 0 0)
(2.89389e-12 0 0)
(3.32341e-12 0 0)
(6.63365e-12 0 0)
(4.15919e-12 0 0)
(4.43785e-12 0 0)
(3.71292e-12 0 0)
(6.01235e-12 0 0)
(7.29743e-12 0 0)
(7.05203e-12 0 0)
(5.22271e-12 0 0)
(3.66836e-12 0 0)
(4.30979e-13 0 0)
(-1.03514e-12 0 0)
(-3.66318e-12 0 0)
(-1.95614e-12 0 0)
(-4.70827e-12 0 0)
(-1.46656e-12 0 0)
(-2.73096e-12 0 0)
(-8.7198e-13 0 0)
(7.66408e-13 0 0)
(3.58272e-13 0 0)
(1.38357e-13 0 0)
(-2.61941e-12 0 0)
(-2.26905e-12 0 0)
(-3.03894e-12 0 0)
(-5.06365e-12 0 0)
(8.90445e-14 0 0)
(-3.53171e-13 0 0)
(-9.79074e-13 0 0)
(-1.23661e-12 0 0)
(-2.62061e-12 0 0)
(-2.39105e-12 0 0)
(1.4625e-12 0 0)
(2.66398e-12 0 0)
(-1.22821e-13 0 0)
(3.35749e-12 0 0)
(-9.74457e-13 0 0)
(2.12659e-13 0 0)
(-9.10109e-13 0 0)
(-1.71167e-12 0 0)
(-1.1416e-12 0 0)
(-1.46166e-12 0 0)
(-4.11396e-12 0 0)
(-1.79494e-12 0 0)
(-5.56111e-12 0 0)
(-3.95947e-12 0 0)
(-6.09006e-12 0 0)
(-7.4161e-12 0 0)
(-7.93093e-12 0 0)
(-5.33888e-12 0 0)
(-6.69824e-12 0 0)
(-8.67755e-12 0 0)
(-5.18839e-12 0 0)
(-4.65771e-12 0 0)
(-4.27916e-12 0 0)
(-1.23995e-12 0 0)
(-1.07526e-12 0 0)
(6.78568e-13 0 0)
(6.60753e-13 0 0)
(-2.12279e-12 0 0)
(2.45984e-13 0 0)
(1.06308e-12 0 0)
(1.36109e-12 0 0)
(8.47583e-13 0 0)
(-1.3522e-12 0 0)
(-7.68715e-14 0 0)
(-1.31266e-13 0 0)
(-1.09308e-12 0 0)
(-1.64066e-12 0 0)
(-4.83535e-12 0 0)
(-2.74689e-12 0 0)
(-1.43395e-13 0 0)
(1.29783e-12 0 0)
(2.16944e-12 0 0)
(1.10047e-13 0 0)
(1.68584e-13 0 0)
(1.34119e-12 0 0)
(6.81766e-13 0 0)
(-7.57038e-13 0 0)
(2.05228e-12 0 0)
(-2.26106e-14 0 0)
(1.1364e-12 0 0)
(4.16132e-12 0 0)
(4.80515e-12 0 0)
(4.04299e-12 0 0)
(8.67964e-13 0 0)
(1.86274e-12 0 0)
(2.59084e-12 0 0)
(3.81632e-12 0 0)
(1.71883e-12 0 0)
(4.16953e-12 0 0)
(2.52495e-12 0 0)
(4.06919e-12 0 0)
(3.54643e-12 0 0)
(4.34107e-12 0 0)
(1.04837e-12 0 0)
(3.2187e-13 0 0)
(1.54805e-12 0 0)
(1.06397e-12 0 0)
(4.22259e-12 0 0)
(1.73322e-12 0 0)
(7.2959e-12 0 0)
(4.50446e-12 0 0)
(4.51183e-12 0 0)
(7.345e-12 0 0)
(7.21667e-12 0 0)
(6.77344e-12 0 0)
(6.57345e-12 0 0)
(6.56318e-12 0 0)
(5.07575e-12 0 0)
(6.36146e-12 0 0)
(7.64184e-12 0 0)
(4.74763e-12 0 0)
(4.7435e-12 0 0)
(5.13773e-12 0 0)
(4.6469e-12 0 0)
(1.65557e-12 0 0)
(2.88032e-12 0 0)
(3.22601e-12 0 0)
(2.74937e-12 0 0)
(1.90045e-12 0 0)
(7.63456e-13 0 0)
(2.05596e-12 0 0)
(3.50051e-12 0 0)
(2.2556e-12 0 0)
(-4.94372e-13 0 0)
(-1.97748e-12 0 0)
(-2.7855e-12 0 0)
(-4.54009e-12 0 0)
(-3.39019e-12 0 0)
(-5.02222e-13 0 0)
(-3.91447e-13 0 0)
(-8.13778e-13 0 0)
(1.93192e-12 0 0)
(1.26919e-12 0 0)
(2.9897e-12 0 0)
(3.6071e-12 0 0)
(1.16198e-12 0 0)
(1.39247e-12 0 0)
(-1.31398e-12 0 0)
(2.76245e-12 0 0)
(-6.81523e-13 0 0)
(2.89975e-12 0 0)
(2.49027e-12 0 0)
(3.01794e-12 0 0)
(2.37184e-12 0 0)
(-2.00929e-13 0 0)
(-4.1471e-13 0 0)
(8.58675e-13 0 0)
(9.45358e-13 0 0)
(1.22811e-12 0 0)
(5.87056e-13 0 0)
(-1.54294e-12 0 0)
(-5.169e-13 0 0)
(2.8184e-12 0 0)
(8.92378e-13 0 0)
(9.21858e-14 0 0)
(-1.51468e-12 0 0)
(2.67594e-12 0 0)
(-1.06405e-12 0 0)
(2.30427e-12 0 0)
(2.41351e-12 0 0)
(-1.02977e-13 0 0)
(5.00408e-12 0 0)
(4.94641e-12 0 0)
(9.04328e-12 0 0)
(6.58201e-12 0 0)
(7.98365e-12 0 0)
(5.25193e-12 0 0)
(8.02772e-12 0 0)
(7.96827e-12 0 0)
(1.03358e-11 0 0)
(8.50088e-12 0 0)
(7.71239e-12 0 0)
(9.40121e-12 0 0)
(9.47883e-12 0 0)
(1.13524e-11 0 0)
(1.10396e-11 0 0)
(1.11403e-11 0 0)
(1.20895e-11 0 0)
(1.27623e-11 0 0)
(1.44177e-11 0 0)
(1.41803e-11 0 0)
(1.39941e-11 0 0)
(1.59866e-11 0 0)
(1.52534e-11 0 0)
(1.72781e-11 0 0)
(1.44941e-11 0 0)
(1.54403e-11 0 0)
(1.39138e-11 0 0)
(1.89383e-11 0 0)
(1.66297e-11 0 0)
(1.86262e-11 0 0)
(1.69163e-11 0 0)
)
;

boundaryField
{
    sides
    {
        type            zeroGradient;
    }
    empty
    {
        type            empty;
    }
}


// ************************************************************************* //
