/*--------------------------------*- C++ -*----------------------------------*\
| =========                 |                                                 |
| \\      /  F ield         | OpenFOAM: The Open Source CFD Toolbox           |
|  \\    /   O peration     | Version:  4.1                                   |
|   \\  /    A nd           | Web:      www.OpenFOAM.org                      |
|    \\/     M anipulation  |                                                 |
\*---------------------------------------------------------------------------*/
FoamFile
{
    version     2.0;
    format      ascii;
    class       volScalarField;
    location    "0.0052";
    object      mag(U);
}
// * * * * * * * * * * * * * * * * * * * * * * * * * * * * * * * * * * * * * //

dimensions      [0 1 -1 0 0 0 0];

internalField   nonuniform List<scalar> 
1000
(
6.98319e-12
3.66459e-12
8.16981e-12
4.6503e-12
5.74693e-12
7.93561e-12
8.11703e-12
5.45553e-12
2.96656e-12
5.90623e-12
4.22188e-12
5.98663e-12
5.49843e-12
7.06767e-12
3.78993e-12
5.34781e-12
8.10351e-13
5.40096e-12
5.72609e-13
2.04124e-13
1.82055e-12
1.73099e-12
1.59554e-12
2.66234e-12
9.2665e-13
3.33351e-12
2.6469e-12
4.5954e-12
8.06088e-12
9.67639e-12
1.34559e-11
1.47288e-11
1.74101e-11
1.73917e-11
2.17914e-11
1.84349e-11
2.0908e-11
1.8527e-11
2.43217e-11
2.21941e-11
2.43422e-11
2.1042e-11
2.34423e-11
2.05052e-11
2.42597e-11
2.1185e-11
2.37252e-11
2.20888e-11
2.28392e-11
1.84247e-11
2.03906e-11
1.68268e-11
1.74925e-11
1.98752e-11
2.0089e-11
2.20583e-11
2.11699e-11
2.08397e-11
1.79787e-11
1.86777e-11
1.30547e-11
1.31985e-11
8.08598e-12
8.94475e-12
6.76424e-12
1.13816e-11
9.30857e-12
9.15557e-12
3.05341e-12
8.3665e-12
4.62533e-12
7.37543e-12
5.81477e-12
1.10141e-11
6.94476e-12
1.10956e-11
9.36596e-12
1.09803e-11
7.80375e-12
7.01309e-12
6.90149e-12
7.73166e-12
6.14076e-12
5.37995e-12
7.77032e-12
6.93041e-12
6.73052e-12
2.54671e-12
3.88068e-12
1.26244e-12
5.79489e-12
1.21761e-12
2.86801e-12
5.58199e-13
1.41591e-12
1.97867e-12
2.75387e-12
4.21975e-12
3.65159e-12
4.83317e-12
6.8382e-12
8.66104e-12
1.01848e-11
4.66268e-12
6.98034e-12
7.0787e-12
6.67063e-12
1.08522e-11
1.03574e-11
1.20594e-11
1.20734e-11
1.13787e-11
1.17968e-11
1.05849e-11
1.15429e-11
1.05956e-11
1.11471e-11
1.03026e-11
1.08739e-11
1.18069e-11
1.33907e-11
1.4851e-11
1.25601e-11
1.31567e-11
1.34465e-11
1.46726e-11
1.54988e-11
1.67877e-11
1.41492e-11
1.77565e-11
1.75562e-11
1.62701e-11
1.7248e-11
1.69752e-11
1.70581e-11
1.83479e-11
1.78183e-11
1.74867e-11
1.68413e-11
1.7419e-11
1.82476e-11
1.97458e-11
1.88974e-11
1.82968e-11
1.7173e-11
1.71493e-11
1.8527e-11
1.55682e-11
1.75855e-11
1.68022e-11
1.82826e-11
1.63799e-11
1.79846e-11
1.3868e-11
1.65884e-11
1.58787e-11
1.47559e-11
1.40368e-11
1.30839e-11
1.51482e-11
1.49579e-11
1.45565e-11
1.53483e-11
1.39122e-11
1.21882e-11
1.36984e-11
1.28602e-11
1.34601e-11
1.57009e-11
1.79637e-11
1.81405e-11
1.70941e-11
1.57564e-11
1.50018e-11
1.3791e-11
1.53749e-11
1.45624e-11
1.75551e-11
1.44616e-11
1.63113e-11
1.24804e-11
1.37271e-11
1.33825e-11
1.48984e-11
1.52369e-11
1.50544e-11
1.37238e-11
1.33672e-11
1.13784e-11
1.28275e-11
1.39452e-11
1.10093e-11
1.42981e-11
9.54753e-12
1.22833e-11
1.02419e-11
1.3377e-11
1.07592e-11
1.28606e-11
9.21407e-12
1.3654e-11
8.8088e-12
1.08442e-11
9.40453e-12
1.30375e-11
1.21866e-11
1.22296e-11
9.5998e-12
1.12949e-11
1.27351e-11
1.13935e-11
1.08605e-11
1.01019e-11
1.09941e-11
8.49968e-12
1.29603e-11
8.88161e-12
1.37721e-11
8.84322e-12
1.32614e-11
9.99297e-12
1.33099e-11
1.17278e-11
1.57201e-11
8.94607e-12
1.35573e-11
9.89519e-12
1.28598e-11
8.80881e-12
1.13251e-11
1.09842e-11
1.22171e-11
1.19385e-11
1.05591e-11
1.25162e-11
1.06587e-11
1.36808e-11
1.49692e-11
3.32139e-11
5.89342e-11
1.23936e-10
2.49215e-10
5.1617e-10
1.0468e-09
2.12803e-09
4.28409e-09
8.57849e-09
1.70356e-08
3.35814e-08
6.56722e-08
1.27436e-07
2.45335e-07
4.68564e-07
8.87699e-07
1.66803e-06
3.1083e-06
5.74342e-06
1.05216e-05
1.91072e-05
3.43908e-05
6.13407e-05
0.000108403
0.000189775
0.000329049
0.000564956
0.0009603
0.00161561
0.00268965
0.00442966
0.00721501
0.0116188
0.018493
0.0290814
0.0451671
0.0692551
0.104788
0.156387
0.230089
0.333557
0.476186
0.669051
0.924589
1.2559
1.67555
2.19356
2.81428
3.53368
4.34189
5.22879
6.18631
7.20756
8.28604
9.41543
10.5898
11.8035
13.0516
14.3297
15.634
16.961
18.3079
19.6724
21.0522
22.4456
23.8512
25.2676
26.6937
28.1285
29.5712
31.0212
32.4776
33.9401
35.408
36.881
38.3586
39.8406
41.3265
42.8162
44.3092
45.8056
47.3049
48.807
50.3117
51.8188
53.3283
54.8399
56.3535
57.869
59.3863
60.9052
62.4257
63.9476
65.4708
66.9953
68.521
70.0478
71.5755
73.1042
74.6338
76.1641
77.6951
79.2267
80.7589
82.2916
83.8246
85.3581
86.8918
88.4258
89.9599
91.4941
93.0283
94.5625
96.0966
97.6306
99.1642
100.698
102.231
103.763
105.295
106.827
108.357
109.887
111.417
112.945
114.472
115.999
117.524
119.048
120.57
122.091
123.611
125.129
126.645
128.159
129.671
131.181
132.688
134.194
135.696
137.196
138.693
140.187
141.677
143.164
144.647
146.126
147.601
149.071
150.536
151.997
153.452
154.901
156.343
157.78
159.209
160.63
162.044
163.449
164.844
166.23
167.605
168.969
170.321
171.66
172.984
174.294
175.588
176.864
178.121
179.359
180.575
181.768
182.936
184.077
185.19
186.271
187.32
188.333
189.309
190.245
191.138
191.987
192.788
193.54
194.241
194.888
195.48
196.018
196.5
196.926
197.297
197.617
197.885
198.106
198.286
198.425
198.53
198.607
198.659
198.69
198.708
198.715
198.716
198.716
198.715
198.712
198.706
198.694
198.677
198.659
198.643
198.629
198.618
198.609
198.602
198.598
198.595
198.593
198.592
198.591
198.59
198.589
198.588
198.587
198.587
198.586
198.585
198.585
198.584
198.583
198.583
198.582
198.581
198.58
198.58
198.579
198.579
198.578
198.578
198.577
198.577
198.576
198.575
198.575
198.574
198.574
198.573
198.573
198.572
198.571
198.571
198.57
198.57
198.569
198.569
198.568
198.568
198.567
198.567
198.566
198.566
198.565
198.565
198.564
198.564
198.563
198.563
198.562
198.561
198.561
198.56
198.56
198.559
198.559
198.558
198.558
198.557
198.557
198.556
198.556
198.555
198.555
198.554
198.554
198.554
198.553
198.553
198.552
198.552
198.552
198.552
198.551
198.551
198.551
198.55
198.55
198.55
198.55
198.55
198.549
198.549
198.549
198.549
198.549
198.548
198.548
198.548
198.548
198.548
198.548
198.548
198.548
198.547
198.547
198.547
198.547
198.547
198.547
198.546
198.546
198.546
198.545
198.545
198.544
198.544
198.544
198.543
198.543
198.543
198.542
198.542
198.542
198.541
198.541
198.541
198.54
198.54
198.54
198.54
198.539
198.538
198.538
198.537
198.536
198.536
198.537
198.538
198.537
198.536
198.536
198.535
198.535
198.535
198.535
198.536
198.542
198.555
198.576
198.623
198.734
198.855
198.804
198.64
198.55
198.507
198.477
198.473
198.501
198.526
198.519
198.505
198.52
198.548
198.546
198.518
198.514
198.545
198.556
198.527
198.505
198.527
198.558
198.55
198.516
198.509
198.539
198.551
198.522
198.501
198.523
198.55
198.536
198.503
198.507
198.541
198.548
198.517
198.499
198.524
198.549
198.529
198.498
198.51
198.546
198.542
198.506
198.497
198.531
198.552
198.523
198.492
198.512
198.548
198.539
198.501
198.496
198.531
198.548
198.518
198.49
198.512
198.546
198.533
198.495
198.497
198.535
198.544
198.507
198.485
198.515
198.546
198.526
198.488
198.495
198.533
198.538
198.501
198.483
198.514
198.541
198.517
198.481
198.495
198.533
198.53
198.491
198.479
198.513
198.536
198.507
198.473
198.491
198.528
198.519
198.479
198.472
198.508
198.525
198.49
198.461
198.485
198.519
198.499
198.457
198.461
198.501
198.505
198.462
198.438
198.47
198.499
198.47
198.425
198.434
198.473
198.469
198.42
198.399
198.432
198.453
198.415
198.369
198.381
198.417
198.399
198.343
198.325
198.357
198.367
198.315
198.266
198.277
198.304
198.272
198.206
198.185
198.208
198.2
198.134
198.079
198.08
198.089
198.036
197.958
197.923
197.923
197.892
197.808
197.737
197.709
197.684
197.604
197.502
197.435
197.394
197.316
197.183
197.063
196.984
196.907
196.753
196.562
196.424
196.326
196.163
195.895
195.649
195.477
195.28
194.927
194.515
194.202
193.95
193.512
192.8
192.074
191.464
190.53
187.949
181.654
165.126
114.81
44.7678
11.8787
2.93109
0.700993
0.166251
0.0393431
0.00930465
0.00219995
0.000520102
0.000122957
2.90679e-05
6.87175e-06
1.62447e-06
3.8402e-07
9.07814e-08
2.14654e-08
5.07693e-09
1.20772e-09
2.89331e-10
7.43548e-11
2.04097e-11
1.13174e-11
3.91908e-12
5.20772e-12
3.11467e-13
5.06808e-12
5.53367e-12
9.4457e-12
9.62523e-12
9.82825e-12
7.17668e-12
8.82522e-12
7.34719e-12
7.70676e-12
6.4569e-12
3.78262e-12
4.02026e-12
7.08159e-12
8.66321e-12
9.74221e-12
8.34963e-12
1.0104e-11
9.14972e-12
5.75403e-12
4.55793e-12
4.31461e-12
5.39697e-12
4.16761e-12
6.01706e-12
5.64167e-12
2.90818e-12
1.66997e-12
2.36986e-12
3.70543e-12
6.56716e-12
8.98976e-12
8.06356e-12
7.62058e-12
7.47934e-12
8.49007e-12
9.28854e-12
6.1532e-12
6.99764e-12
4.9986e-12
6.48422e-12
3.54499e-12
5.60051e-12
5.09476e-12
4.06531e-12
2.54056e-12
4.99233e-13
2.34423e-12
7.39583e-13
9.87829e-13
2.4664e-12
9.77729e-13
4.39069e-12
1.66579e-12
5.62803e-12
5.1834e-12
5.94378e-12
4.72607e-12
3.53274e-12
2.87796e-12
2.72185e-12
5.7524e-12
3.33514e-12
2.74681e-12
4.30125e-12
6.15983e-12
2.62749e-12
5.47843e-12
2.42081e-12
4.33178e-12
3.23013e-12
1.93344e-12
1.74178e-12
2.08087e-12
1.07364e-12
1.41229e-12
2.55951e-12
5.82613e-12
6.83856e-12
8.70261e-12
7.9639e-12
9.85103e-12
9.79499e-12
1.18373e-11
1.22057e-11
1.21494e-11
1.42037e-11
1.27526e-11
1.38663e-11
1.54516e-11
1.66775e-11
1.4763e-11
1.77744e-11
1.54257e-11
1.52853e-11
1.5839e-11
1.78796e-11
1.84024e-11
1.95735e-11
1.91091e-11
2.21712e-11
2.17759e-11
2.42101e-11
2.58487e-11
2.68863e-11
2.56073e-11
2.59625e-11
2.49426e-11
2.53682e-11
2.31688e-11
1.95349e-11
1.79963e-11
1.71049e-11
1.84257e-11
1.64906e-11
1.88087e-11
1.90426e-11
1.80022e-11
1.68496e-11
1.8357e-11
1.81832e-11
2.06959e-11
1.82167e-11
2.1537e-11
1.97029e-11
2.04355e-11
1.85955e-11
1.8345e-11
1.75124e-11
2.00925e-11
1.99449e-11
1.8468e-11
1.98709e-11
2.18651e-11
2.2213e-11
1.98318e-11
2.04683e-11
2.25762e-11
2.2989e-11
2.50883e-11
2.413e-11
2.69845e-11
2.42629e-11
2.42801e-11
2.4018e-11
2.70356e-11
2.48396e-11
2.60993e-11
2.71603e-11
2.92832e-11
3.05264e-11
2.98064e-11
2.85845e-11
2.94705e-11
3.03112e-11
3.06157e-11
3.09417e-11
3.12813e-11
3.40126e-11
3.38309e-11
3.45483e-11
3.44533e-11
3.55637e-11
3.30048e-11
3.34588e-11
3.32956e-11
3.55305e-11
3.30573e-11
3.27823e-11
3.00149e-11
3.09892e-11
2.87878e-11
2.76844e-11
2.71959e-11
2.8756e-11
2.95841e-11
3.01039e-11
3.107e-11
3.24763e-11
3.53201e-11
3.52461e-11
3.55591e-11
3.59868e-11
3.61118e-11
3.59425e-11
3.58572e-11
3.39115e-11
3.51494e-11
3.24819e-11
3.51843e-11
3.10253e-11
3.45645e-11
3.07316e-11
3.28571e-11
2.7457e-11
)
;

boundaryField
{
    sides
    {
        type            calculated;
        value           nonuniform List<scalar> 2(2.7457e-11 6.98319e-12);
    }
    empty
    {
        type            empty;
    }
}


// ************************************************************************* //
