/*--------------------------------*- C++ -*----------------------------------*\
| =========                 |                                                 |
| \\      /  F ield         | OpenFOAM: The Open Source CFD Toolbox           |
|  \\    /   O peration     | Version:  4.1                                   |
|   \\  /    A nd           | Web:      www.OpenFOAM.org                      |
|    \\/     M anipulation  |                                                 |
\*---------------------------------------------------------------------------*/
FoamFile
{
    version     2.0;
    format      ascii;
    class       volScalarField;
    location    "0.0052";
    object      p;
}
// * * * * * * * * * * * * * * * * * * * * * * * * * * * * * * * * * * * * * //

dimensions      [1 -1 -2 0 0 0 0];

internalField   nonuniform List<scalar> 
1000
(
100000
100000
100000
100000
100000
100000
100000
100000
100000
100000
100000
100000
100000
100000
100000
100000
100000
100000
100000
100000
100000
100000
100000
100000
100000
100000
100000
100000
100000
100000
100000
100000
100000
100000
100000
100000
100000
100000
100000
100000
100000
100000
100000
100000
100000
100000
100000
100000
100000
100000
100000
100000
100000
100000
100000
100000
100000
100000
100000
100000
100000
100000
100000
100000
100000
100000
100000
100000
100000
100000
100000
100000
100000
100000
100000
100000
100000
100000
100000
100000
100000
100000
100000
100000
100000
100000
100000
100000
100000
100000
100000
100000
100000
100000
100000
100000
100000
100000
100000
100000
100000
100000
100000
100000
100000
100000
100000
100000
100000
100000
100000
100000
100000
100000
100000
100000
100000
100000
100000
100000
100000
100000
100000
100000
100000
100000
100000
100000
100000
100000
100000
100000
100000
100000
100000
100000
100000
100000
100000
100000
100000
100000
100000
100000
100000
100000
100000
100000
100000
100000
100000
100000
100000
100000
100000
100000
100000
100000
100000
100000
100000
100000
100000
100000
100000
100000
100000
100000
100000
100000
100000
100000
100000
100000
100000
100000
100000
100000
100000
100000
100000
100000
100000
100000
100000
100000
100000
100000
100000
100000
100000
100000
100000
100000
100000
100000
100000
100000
100000
100000
100000
100000
100000
100000
100000
100000
100000
100000
100000
100000
100000
100000
100000
100000
100000
100000
100000
100000
100000
100000
100000
100000
100000
100000
100000
100000
100000
100000
100000
100000
100000
100000
100000
100000
100000
100000
100000
100000
100000
100000
100000
100000
100000
100000
100000
100000
100000
100000
100000
100000
100000
100000
100000
100000
100000
100000
100000
100000
100000
100000
100000
100000
99999.9
99999.9
99999.8
99999.7
99999.4
99999.1
99998.5
99997.5
99996
99993.6
99990
99984.4
99976.1
99963.7
99945.9
99920.3
99884.4
99834.9
99767.9
99679.1
99564
99418.1
99237.9
99021.8
98771.6
98491.3
98184.8
97855.1
97504.6
97135.8
96750.9
96352.3
95941.9
95521.4
95092.7
94656.9
94215.4
93769.1
93318.9
92865.7
92409.9
91952.1
91492.9
91032.5
90571.4
90109.8
89648
89186.2
88724.5
88263.3
87802.5
87342.4
86883.1
86424.6
85967.1
85510.7
85055.3
84601.2
84148.3
83696.8
83246.6
82797.8
82350.5
81904.7
81460.4
81017.7
80576.6
80137.1
79699.3
79263.1
78828.6
78395.9
77964.9
77535.6
77108.1
76682.5
76258.6
75836.5
75416.3
74997.9
74581.4
74166.8
73754
73343.2
72934.2
72527.2
72122
71718.8
71317.6
70918.3
70521
70125.6
69732.2
69340.8
68951.4
68564
68178.6
67795.3
67414
67034.7
66657.4
66282.2
65909.1
65538.1
65169.1
64802.3
64437.6
64075
63714.5
63356.2
63000.1
62646.1
62294.4
61944.9
61597.6
61252.6
60909.9
60569.5
60231.4
59895.7
59562.4
59231.5
58903
58577.1
58253.7
57932.9
57614.7
57299.2
56986.4
56676.4
56369.3
56065
55763.8
55465.7
55170.7
54878.9
54590.6
54305.7
54024.4
53746.8
53473.1
53203.4
52937.9
52676.7
52420.2
52168.3
51921.7
51680
51444.1
51213.7
50989.7
50771.9
50560.9
50357.1
50160.6
49972.1
49791.7
49620
49457.4
49304.1
49160.5
49027
48903.8
48791.2
48689
48597.6
48516.8
48446.1
48385.6
48334.3
48292.2
48258.1
48231.3
48210.9
48196.3
48186.3
48179.6
48176.2
48174.9
48174.8
48174.8
48175
48175.5
48176.4
48178.2
48181.4
48184.5
48187.6
48190.3
48192.3
48193.9
48195
48195.9
48196.5
48196.9
48197.2
48197.4
48197.6
48197.7
48197.8
48197.9
48198
48198.1
48198.3
48198.4
48198.5
48198.6
48198.7
48198.8
48198.9
48199
48199.1
48199.2
48199.3
48199.4
48199.5
48199.6
48199.6
48199.7
48199.8
48199.9
48200
48200.1
48200.2
48200.3
48200.3
48200.4
48200.5
48200.6
48200.6
48200.7
48200.8
48200.9
48200.9
48201
48201.1
48201.1
48201.2
48201.3
48201.4
48201.4
48201.5
48201.6
48201.7
48201.7
48201.8
48201.9
48202
48202
48202.1
48202.2
48202.3
48202.3
48202.4
48202.5
48202.5
48202.6
48202.7
48202.7
48202.8
48202.8
48202.9
48202.9
48202.9
48203
48203
48203
48203.1
48203.1
48203.1
48203.1
48203.2
48203.2
48203.2
48203.2
48203.2
48203.3
48203.3
48203.3
48203.3
48203.3
48203.3
48203.3
48203.3
48203.3
48203.3
48203.3
48203.3
48203.3
48203.3
48203.3
48203.3
48203.3
48203.4
48203.4
48203.4
48203.4
48203.4
48203.4
48203.4
48203.4
48203.4
48203.4
48203.4
48203.3
48203.3
48203.3
48203.3
48203.3
48203.3
48203.3
48203.3
48203.3
48203.4
48203.4
48203.4
48203.5
48203.5
48203.6
48203.6
48203.7
48203.9
48204
48204
48204
48203.9
48203.9
48203.9
48203.8
48203.6
48203.3
48203.6
48204.6
48204.3
48203.1
48203
48208.6
48224.5
48188.3
48191
48206.5
48208.5
48200.9
48198
48207.6
48212.5
48202.9
48195.1
48201.8
48212.3
48209.6
48195.8
48195.8
48211.1
48214.1
48199
48191.8
48203.5
48214.9
48210.2
48195
48195.3
48210.7
48214.2
48199.8
48192.7
48204.7
48215.2
48206.9
48192.9
48196.8
48212.9
48213.8
48197.5
48192.6
48206.7
48215.1
48203.8
48191.9
48199.8
48214.9
48211.5
48193.6
48192.8
48211.1
48216.3
48200
48190.6
48202.5
48215.7
48209.8
48192.7
48193.4
48211.8
48215.6
48198.6
48190.6
48203.7
48215.6
48207.3
48191.6
48195
48213.5
48214.5
48195.2
48189.8
48206.7
48216.4
48204.5
48190.4
48195.9
48213.7
48213.2
48194
48190.1
48207.6
48215.7
48201.6
48189.4
48198
48214.3
48211.1
48191.5
48190
48209.2
48215.3
48198.9
48188.1
48199.2
48214.2
48208.6
48189.7
48190.2
48210
48213.8
48195
48186.7
48201.6
48214.2
48203.2
48186
48191.1
48211.5
48211.1
48188.9
48184
48203.1
48212.8
48197.1
48182.2
48190.1
48209.2
48206.2
48183.5
48180.5
48200.4
48208.1
48189.2
48176.1
48186.7
48203.9
48196.6
48173.8
48173.1
48194
48198.9
48175.2
48164.4
48177
48192.4
48180.3
48158.3
48158.6
48178.1
48179.9
48153.3
48144.4
48155.8
48168.3
48150.6
48131.2
48130.5
48145.2
48143.9
48115.6
48108
48111.9
48120.9
48099
48079.2
48075.8
48082.2
48077.2
48041.3
48030.8
48029.8
48036.5
47999.8
47965.3
47956.7
47961.5
47950.1
47877.9
47856.4
47853.7
47862.4
47776
47713.1
47693.6
47703.3
47632
47485
47430.6
47386.9
47319.6
46961.4
46154
44293.4
37281.3
28624.2
25977.7
25239.1
25057
25013.5
25003.2
25000.8
25000.2
25000
25000
25000
25000
25000
25000
25000
25000
25000
25000
25000
25000
25000
25000
25000
25000
25000
25000
25000
25000
25000
25000
25000
25000
25000
25000
25000
25000
25000
25000
25000
25000
25000
25000
25000
25000
25000
25000
25000
25000
25000
25000
25000
25000
25000
25000
25000
25000
25000
25000
25000
25000
25000
25000
25000
25000
25000
25000
25000
25000
25000
25000
25000
25000
25000
25000
25000
25000
25000
25000
25000
25000
25000
25000
25000
25000
25000
25000
25000
25000
25000
25000
25000
25000
25000
25000
25000
25000
25000
25000
25000
25000
25000
25000
25000
25000
25000
25000
25000
25000
25000
25000
25000
25000
25000
25000
25000
25000
25000
25000
25000
25000
25000
25000
25000
25000
25000
25000
25000
25000
25000
25000
25000
25000
25000
25000
25000
25000
25000
25000
25000
25000
25000
25000
25000
25000
25000
25000
25000
25000
25000
25000
25000
25000
25000
25000
25000
25000
25000
25000
25000
25000
25000
25000
25000
25000
25000
25000
25000
25000
25000
25000
25000
25000
25000
25000
25000
25000
25000
25000
25000
25000
25000
25000
25000
25000
25000
25000
25000
25000
25000
25000
25000
25000
25000
25000
25000
25000
25000
25000
25000
25000
25000
25000
25000
25000
25000
25000
25000
25000
25000
25000
25000
25000
25000
25000
25000
25000
25000
25000
25000
)
;

boundaryField
{
    sides
    {
        type            zeroGradient;
    }
    empty
    {
        type            empty;
    }
}


// ************************************************************************* //
