/*--------------------------------*- C++ -*----------------------------------*\
| =========                 |                                                 |
| \\      /  F ield         | OpenFOAM: The Open Source CFD Toolbox           |
|  \\    /   O peration     | Version:  4.1                                   |
|   \\  /    A nd           | Web:      www.OpenFOAM.org                      |
|    \\/     M anipulation  |                                                 |
\*---------------------------------------------------------------------------*/
FoamFile
{
    version     2.0;
    format      ascii;
    class       surfaceScalarField;
    location    "0.0052";
    object      phi;
}
// * * * * * * * * * * * * * * * * * * * * * * * * * * * * * * * * * * * * * //

dimensions      [1 0 -1 0 0 0 0];

internalField   nonuniform List<scalar> 
999
(
-1.87299e-11
-2.13234e-11
-2.30145e-11
-1.6712e-11
-2.41585e-11
-2.95657e-11
-2.2446e-11
-1.44738e-11
-1.54188e-11
-1.71028e-11
-1.77351e-11
-2.00089e-11
-2.26876e-11
-1.79696e-11
-1.80336e-11
-8.82494e-12
-1.22853e-11
-8.83205e-12
4.68958e-13
3.54561e-12
9.23706e-14
-6.1533e-12
-6.71463e-12
-3.63798e-12
-3.43903e-12
-1.10774e-11
-1.28395e-11
-2.18918e-11
-3.08944e-11
-4.09841e-11
-5.00506e-11
-5.56284e-11
-5.95648e-11
-6.88019e-11
-7.12461e-11
-6.82974e-11
-6.68763e-11
-7.53246e-11
-8.16769e-11
-8.2558e-11
-7.75628e-11
-7.65539e-11
-7.63762e-11
-7.71436e-11
-7.93747e-11
-7.85292e-11
-7.97584e-11
-7.75557e-11
-7.21911e-11
-6.61231e-11
-6.67484e-11
-5.82077e-11
-6.45599e-11
-6.89866e-11
-7.46283e-11
-7.40386e-11
-7.44365e-11
-6.5711e-11
-6.45031e-11
-5.52731e-11
-4.583e-11
-3.74598e-11
-2.96509e-11
-2.63967e-11
-3.13847e-11
-3.64224e-11
-3.41487e-11
-1.9476e-11
-1.98597e-11
-2.31779e-11
-2.07478e-11
-2.2581e-11
-3.00986e-11
-3.00702e-11
-3.23155e-11
-3.64224e-11
-3.59748e-11
-3.18749e-11
-2.63753e-11
-2.32347e-11
-2.43361e-11
-2.59917e-11
-1.87796e-11
-2.27303e-11
-2.53877e-11
-2.54303e-11
-1.5298e-11
-1.02887e-11
-4.90274e-12
-7.34701e-12
-8.81784e-12
-2.57216e-12
-4.17799e-12
-1.33582e-12
8.02913e-13
9.01679e-12
1.14184e-11
1.43032e-11
1.4218e-11
2.10107e-11
2.7363e-11
3.19886e-11
2.68017e-11
1.92273e-11
2.5274e-11
2.34337e-11
3.10436e-11
3.72467e-11
3.84404e-11
4.25686e-11
4.0238e-11
3.91864e-11
4.01101e-11
3.87885e-11
3.76801e-11
3.82201e-11
3.71045e-11
3.62945e-11
3.99041e-11
4.3606e-11
4.82032e-11
4.87859e-11
4.44444e-11
4.50058e-11
5.03633e-11
5.26157e-11
5.4996e-11
5.40012e-11
5.52944e-11
6.20517e-11
6.08225e-11
5.59695e-11
6.07727e-11
5.88045e-11
6.21654e-11
6.35794e-11
5.99698e-11
6.10356e-11
6.00693e-11
6.01119e-11
6.8141e-11
6.5917e-11
6.64713e-11
6.18741e-11
5.70992e-11
6.35652e-11
5.94156e-11
5.61755e-11
6.10143e-11
6.0048e-11
6.18527e-11
5.93445e-11
5.47473e-11
5.29639e-11
5.64313e-11
5.37028e-11
4.97025e-11
4.71658e-11
4.77982e-11
5.45057e-11
4.85585e-11
5.4861e-11
5.00435e-11
4.60005e-11
4.4956e-11
4.52118e-11
4.70806e-11
4.91198e-11
5.94369e-11
6.26557e-11
6.29612e-11
5.52021e-11
5.48113e-11
4.96527e-11
5.09104e-11
5.13793e-11
5.6616e-11
5.48255e-11
5.46336e-11
5.04841e-11
4.38334e-11
4.69811e-11
4.79474e-11
5.45128e-11
5.04556e-11
5.23457e-11
4.43379e-11
4.58087e-11
4.14175e-11
4.63771e-11
4.38547e-11
4.21565e-11
4.35421e-11
3.58398e-11
4.1652e-11
3.87885e-11
4.36344e-11
3.93356e-11
3.97051e-11
3.88169e-11
4.01599e-11
3.44968e-11
3.51434e-11
3.79288e-11
4.5361e-11
4.26041e-11
3.66782e-11
3.73532e-11
4.09059e-11
4.28741e-11
3.77511e-11
3.68345e-11
3.68843e-11
3.46247e-11
3.68843e-11
3.75877e-11
3.9158e-11
3.86109e-11
3.98046e-11
3.93854e-11
4.00178e-11
4.4416e-11
4.81677e-11
4.2391e-11
3.80425e-11
4.11404e-11
4.03872e-11
3.65716e-11
3.43476e-11
3.93214e-11
3.93143e-11
4.36913e-11
3.89662e-11
4.0032e-11
3.93641e-11
4.15454e-11
4.73648e-11
8.03055e-11
1.5288e-10
3.03316e-10
6.17639e-10
1.26914e-09
2.59357e-09
5.2715e-09
1.06545e-08
2.13923e-08
4.26312e-08
8.43152e-08
1.65463e-07
3.22188e-07
6.22448e-07
1.19304e-06
2.2684e-06
4.27812e-06
8.00201e-06
1.48423e-05
2.72963e-05
4.97668e-05
8.99384e-05
0.000161083
0.000285877
0.000502642
0.000875395
0.00150984
0.00257837
0.00435866
0.00729201
0.0120703
0.0197628
0.0319968
0.0512106
0.0809953
0.126545
0.195231
0.297291
0.44663
0.661659
0.966081
1.38946
1.96732
2.74055
3.75366
5.05156
6.67437
8.64926
10.9765
13.6205
16.5368
19.6907
23.0547
26.6035
30.3124
34.158
38.1186
42.1744
46.3079
50.5038
54.7489
59.0319
63.3433
67.6748
72.0196
76.3718
80.7263
85.079
89.4261
93.7646
98.0917
102.405
106.703
110.983
115.244
119.485
123.705
127.901
132.074
136.223
140.347
144.445
148.516
152.561
156.578
160.568
164.53
168.463
172.367
176.243
180.089
183.906
187.694
191.451
195.179
198.877
202.545
206.182
209.79
213.367
216.913
220.429
223.915
227.37
230.794
234.188
237.552
240.885
244.187
247.459
250.7
253.91
257.091
260.24
263.359
266.448
269.507
272.535
275.532
278.5
281.437
284.344
287.221
290.068
292.884
295.671
298.428
301.155
303.851
306.519
309.156
311.763
314.341
316.889
319.408
321.896
324.355
326.785
329.185
331.556
333.897
336.208
338.49
340.742
342.965
345.158
347.321
349.455
351.559
353.633
355.677
357.691
359.675
361.629
363.552
365.445
367.307
369.137
370.937
372.705
374.441
376.145
377.815
379.455
381.057
382.631
384.162
385.671
387.124
388.567
389.941
391.309
392.613
393.883
395.134
396.288
397.478
398.537
399.614
400.628
401.548
402.508
403.323
404.131
404.913
405.555
406.23
406.815
407.302
407.814
408.221
408.554
408.903
409.156
409.35
409.555
409.69
409.775
409.869
409.927
409.95
409.969
409.984
409.985
409.977
409.972
409.969
409.965
409.957
409.942
409.929
409.913
409.898
409.888
409.877
409.868
409.863
409.859
409.855
409.853
409.852
409.849
409.847
409.845
409.843
409.84
409.838
409.837
409.835
409.833
409.831
409.829
409.827
409.824
409.822
409.82
409.818
409.817
409.815
409.812
409.81
409.808
409.805
409.803
409.801
409.798
409.796
409.794
409.792
409.79
409.787
409.785
409.783
409.779
409.777
409.775
409.772
409.769
409.767
409.765
409.761
409.759
409.756
409.753
409.75
409.747
409.744
409.741
409.739
409.735
409.732
409.729
409.726
409.723
409.719
409.715
409.713
409.709
409.705
409.701
409.698
409.695
409.69
409.685
409.682
409.679
409.674
409.669
409.664
409.662
409.657
409.652
409.646
409.643
409.639
409.634
409.627
409.621
409.618
409.614
409.609
409.601
409.594
409.589
409.585
409.58
409.571
409.562
409.555
409.55
409.546
409.54
409.529
409.518
409.508
409.502
409.498
409.492
409.481
409.465
409.45
409.438
409.432
409.427
409.419
409.402
409.38
409.358
409.344
409.336
409.33
409.321
409.296
409.264
409.235
409.214
409.203
409.195
409.182
409.15
409.1
409.052
409.011
408.984
408.969
408.961
408.944
408.904
408.793
408.671
408.558
408.476
408.431
408.413
408.406
408.438
408.588
408.738
408.851
408.871
408.422
404.73
389.983
366.328
346.041
328.59
314.138
302.607
294.081
287.844
283.098
279.513
277.247
276.039
275.106
274.151
273.614
273.655
273.739
273.445
273.102
273.139
273.516
273.563
273.183
273.065
273.343
273.564
273.391
273.084
273.173
273.539
273.547
273.136
273.064
273.447
273.594
273.345
273.085
273.217
273.561
273.526
273.118
273.083
273.529
273.625
273.222
273.049
273.335
273.618
273.483
273.095
273.109
273.56
273.638
273.185
273.053
273.383
273.625
273.456
273.098
273.142
273.572
273.623
273.154
273.05
273.47
273.653
273.364
273.066
273.205
273.608
273.604
273.133
273.053
273.509
273.651
273.321
273.066
273.248
273.613
273.557
273.113
273.072
273.552
273.655
273.236
273.049
273.31
273.628
273.514
273.09
273.087
273.566
273.647
273.18
273.036
273.371
273.634
273.436
273.059
273.13
273.592
273.615
273.094
273.004
273.487
273.66
273.291
272.995
273.181
273.609
273.557
273.039
272.976
273.502
273.639
273.178
272.947
273.192
273.578
273.453
272.959
272.941
273.477
273.58
273.01
272.848
273.184
273.524
273.278
272.824
272.85
273.376
273.436
272.811
272.696
273.052
273.356
272.99
272.612
272.666
273.136
273.137
272.525
272.443
272.711
272.992
272.54
272.26
272.288
272.634
272.601
271.99
271.947
272.067
272.351
271.7
271.412
271.436
271.711
271.672
270.703
270.631
270.784
271.239
270.039
269.488
269.54
270.058
269.636
267.803
267.709
268.147
268.782
265.388
264.693
264.833
265.344
264.697
253.399
238.881
211.126
75.698
22.8864
5.7495
1.38019
0.327647
0.0775644
0.0183467
0.00433826
0.00102566
0.000242479
5.7324e-05
1.35517e-05
3.20365e-06
7.57336e-07
1.79031e-07
4.23245e-08
1.00085e-08
2.36997e-09
5.64956e-10
1.37417e-10
3.61595e-11
1.22284e-11
6.18883e-12
4.21352e-12
2.13163e-12
2.25775e-12
4.71267e-12
6.66667e-12
8.27072e-12
8.43592e-12
7.43938e-12
6.84608e-12
7.06457e-12
6.60805e-12
6.05738e-12
4.67892e-12
3.07132e-12
5.1763e-12
6.76792e-12
8.17479e-12
7.59925e-12
8.0469e-12
8.68994e-12
6.04317e-12
4.95604e-12
3.41593e-12
4.45333e-12
4.37339e-12
4.24905e-12
4.9063e-12
3.93818e-12
1.93268e-12
1.59872e-12
2.70894e-12
4.50839e-12
6.56897e-12
7.51399e-12
7.1676e-12
6.58318e-12
6.46772e-12
8.30269e-12
6.39311e-12
5.83888e-12
5.42144e-12
4.62563e-12
4.46221e-12
4.31299e-12
4.47997e-12
3.93818e-12
2.76223e-12
1.44951e-12
1.35891e-12
1.1191e-12
9.23706e-13
1.34115e-12
7.74492e-13
1.28253e-12
2.9079e-12
3.15303e-12
4.448e-12
5.14433e-12
4.36451e-12
3.79607e-12
2.64322e-12
2.5242e-12
3.76232e-12
3.64331e-12
2.93454e-12
2.83684e-12
4.81215e-12
3.57758e-12
3.8991e-12
3.02691e-12
3.3662e-12
2.93099e-12
2.50111e-12
1.42641e-12
-9.41469e-14
-5.31131e-13
1.00187e-12
1.84919e-12
3.80673e-12
5.3042e-12
6.96865e-12
7.19247e-12
7.73248e-12
8.29914e-12
9.28857e-12
1.06333e-11
1.03899e-11
1.18039e-11
1.16742e-11
1.12266e-11
1.27969e-11
1.41238e-11
1.35358e-11
1.43086e-11
1.41807e-11
1.37064e-11
1.32196e-11
1.51701e-11
1.58398e-11
1.61577e-11
1.67883e-11
1.79163e-11
1.94795e-11
1.95399e-11
2.16414e-11
2.33449e-11
2.30891e-11
2.17213e-11
2.2677e-11
2.15756e-11
2.14957e-11
1.81934e-11
1.65539e-11
1.47224e-11
1.59357e-11
1.51363e-11
1.49463e-11
1.68399e-11
1.58966e-11
1.47935e-11
1.56035e-11
1.60778e-11
1.64455e-11
1.70282e-11
1.7641e-11
1.79696e-11
1.71188e-11
1.73639e-11
1.56657e-11
1.55698e-11
1.62075e-11
1.8014e-11
1.63869e-11
1.62235e-11
1.8666e-11
1.9087e-11
1.83373e-11
1.71649e-11
1.89786e-11
1.94671e-11
2.12452e-11
2.13127e-11
2.25562e-11
2.22045e-11
2.07798e-11
2.10925e-11
2.25082e-11
2.2311e-11
2.23075e-11
2.27853e-11
2.46239e-11
2.6434e-11
2.664e-11
2.50218e-11
2.48725e-11
2.61462e-11
2.60822e-11
2.73435e-11
2.67324e-11
2.84661e-11
2.97398e-11
2.88356e-11
3.07772e-11
3.01306e-11
3.00169e-11
2.85283e-11
2.89564e-11
2.97913e-11
3.0262e-11
2.83098e-11
2.753e-11
2.68123e-11
2.57003e-11
2.45137e-11
2.35918e-11
2.44889e-11
2.54481e-11
2.556e-11
2.68372e-11
2.79208e-11
2.9063e-11
3.11751e-11
3.01785e-11
3.18785e-11
3.0651e-11
3.1255e-11
3.13047e-11
3.06741e-11
2.95888e-11
2.9555e-11
2.94147e-11
2.87432e-11
2.83205e-11
2.81215e-11
2.81997e-11
2.59472e-11
)
;

boundaryField
{
    sides
    {
        type            calculated;
        value           nonuniform List<scalar> 2(2.38447e-11 2.42261e-11);
    }
    empty
    {
        type            empty;
        value           nonuniform 0();
    }
}


// ************************************************************************* //
