/*--------------------------------*- C++ -*----------------------------------*\
| =========                 |                                                 |
| \\      /  F ield         | OpenFOAM: The Open Source CFD Toolbox           |
|  \\    /   O peration     | Version:  4.1                                   |
|   \\  /    A nd           | Web:      www.OpenFOAM.org                      |
|    \\/     M anipulation  |                                                 |
\*---------------------------------------------------------------------------*/
FoamFile
{
    version     2.0;
    format      ascii;
    class       volScalarField;
    location    "0.0052";
    object      T;
}
// * * * * * * * * * * * * * * * * * * * * * * * * * * * * * * * * * * * * * //

dimensions      [0 0 0 1 0 0 0];

internalField   nonuniform List<scalar> 
1000
(
400
400
400
400
400
400
400
400
400
400
400
400
400
400
400
400
400
400
400
400
400
400
400
400
400
400
400
400
400
400
400
400
400
400
400
400
400
400
400
400
400
400
400
400
400
400
400
400
400
400
400
400
400
400
400
400
400
400
400
400
400
400
400
400
400
400
400
400
400
400
400
400
400
400
400
400
400
400
400
400
400
400
400
400
400
400
400
400
400
400
400
400
400
400
400
400
400
400
400
400
400
400
400
400
400
400
400
400
400
400
400
400
400
400
400
400
400
400
400
400
400
400
400
400
400
400
400
400
400
400
400
400
400
400
400
400
400
400
400
400
400
400
400
400
400
400
400
400
400
400
400
400
400
400
400
400
400
400
400
400
400
400
400
400
400
400
400
400
400
400
400
400
400
400
400
400
400
400
400
400
400
400
400
400
400
400
400
400
400
400
400
400
400
400
400
400
400
400
400
400
400
400
400
400
400
400
400
400
400
400
400
400
400
400
400
400
400
400
400
400
400
400
400
400
400
400
400
400
400
400
400
400
400
400
400
400
400
400
400
400
400
400
400
400
400
400
400
400
400
400
400
400
400
400
400
400
400
400
400
400
400
400
400
400
400
400
399.999
399.999
399.998
399.997
399.995
399.993
399.988
399.982
399.973
399.958
399.938
399.909
399.868
399.811
399.734
399.632
399.5
399.332
399.125
398.876
398.587
398.263
397.908
397.525
397.117
396.687
396.236
395.769
395.285
394.789
394.281
393.763
393.237
392.703
392.162
391.616
391.065
390.51
389.951
389.388
388.823
388.255
387.684
387.112
386.537
385.961
385.384
384.805
384.225
383.643
383.061
382.478
381.894
381.31
380.724
380.139
379.552
378.966
378.379
377.792
377.204
376.616
376.028
375.44
374.852
374.264
373.676
373.088
372.499
371.911
371.323
370.736
370.148
369.561
368.973
368.387
367.8
367.214
366.628
366.042
365.457
364.872
364.287
363.703
363.12
362.537
361.954
361.372
360.791
360.21
359.63
359.051
358.472
357.894
357.317
356.74
356.165
355.59
355.016
354.443
353.87
353.299
352.729
352.16
351.592
351.025
350.459
349.894
349.331
348.769
348.208
347.649
347.091
346.535
345.98
345.427
344.876
344.327
343.779
343.234
342.69
342.149
341.611
341.074
340.541
340.01
339.481
338.956
338.434
337.916
337.401
336.889
336.382
335.879
335.382
334.885
334.403
333.908
333.452
332.946
332.537
332
331.659
331.083
330.8
330.233
329.933
329.476
329.066
328.775
328.284
328.046
327.657
327.303
327.097
326.7
326.486
326.263
325.945
325.813
325.604
325.382
325.299
325.139
324.997
324.95
324.853
324.77
324.749
324.708
324.666
324.659
324.654
324.64
324.639
324.642
324.644
324.644
324.645
324.648
324.654
324.66
324.665
324.674
324.679
324.683
324.688
324.69
324.692
324.695
324.697
324.697
324.699
324.7
324.701
324.702
324.703
324.705
324.706
324.707
324.709
324.71
324.71
324.712
324.713
324.714
324.716
324.717
324.718
324.719
324.721
324.723
324.723
324.725
324.727
324.728
324.729
324.731
324.733
324.733
324.735
324.737
324.739
324.739
324.741
324.744
324.745
324.746
324.748
324.75
324.751
324.753
324.755
324.757
324.759
324.761
324.763
324.765
324.767
324.769
324.77
324.773
324.776
324.777
324.779
324.782
324.785
324.787
324.788
324.791
324.795
324.797
324.798
324.801
324.805
324.808
324.81
324.812
324.816
324.82
324.822
324.824
324.828
324.833
324.836
324.838
324.841
324.846
324.851
324.855
324.857
324.859
324.865
324.871
324.876
324.878
324.881
324.887
324.894
324.901
324.905
324.907
324.911
324.917
324.927
324.936
324.942
324.945
324.948
324.954
324.965
324.978
324.989
324.995
324.998
325.002
325.011
325.028
325.045
325.058
325.066
325.07
325.075
325.086
325.11
325.136
325.155
325.167
325.172
325.179
325.194
325.228
325.269
325.305
325.331
325.346
325.353
325.361
325.38
325.443
325.545
325.641
325.719
325.77
325.795
325.799
325.787
325.708
325.578
325.486
325.449
325.548
326.817
333.639
352.107
374.007
395.375
415.071
432.294
446.67
458.174
466.977
473.428
478.014
481.208
483.366
484.74
485.568
486.099
486.465
486.661
486.718
486.752
486.811
486.858
486.852
486.801
486.793
486.836
486.847
486.801
486.772
486.801
486.833
486.811
486.762
486.765
486.814
486.818
486.767
486.746
486.782
486.81
486.779
486.735
486.75
486.798
486.792
486.732
486.722
486.775
486.794
486.747
486.712
486.74
486.782
486.769
486.712
486.706
486.761
486.775
486.725
486.695
486.727
486.766
486.747
486.694
486.696
486.753
486.761
486.701
486.679
486.725
486.758
486.727
486.679
486.687
486.744
486.747
486.687
486.67
486.719
486.747
486.709
486.666
486.684
486.737
486.733
486.67
486.659
486.715
486.737
486.692
486.653
486.678
486.728
486.717
486.655
486.65
486.71
486.726
486.672
486.641
486.679
486.721
486.695
486.637
486.644
486.709
486.714
486.645
486.625
486.678
486.713
486.672
486.621
486.637
486.699
486.696
486.624
486.609
486.667
486.696
486.644
486.598
486.622
486.679
486.665
486.591
486.583
486.645
486.666
486.597
486.558
486.588
486.639
486.613
486.54
486.537
486.596
486.609
486.528
486.497
486.526
486.571
486.526
486.46
486.454
486.497
486.502
486.413
486.389
486.398
486.43
486.373
486.305
486.291
486.307
486.308
486.199
486.165
486.16
486.184
486.08
485.962
485.947
485.963
485.939
485.712
485.662
485.644
485.663
485.438
485.247
485.155
485.189
485.075
484.589
484.339
484.248
484.097
483.009
480.479
475.592
454.298
416.493
404.48
401.096
400.261
400.062
400.015
400.003
400.001
400
400
400
400
400
400
400
400
400
400
400
400
400
400
400
400
400
400
400
400
400
400
400
400
400
400
400
400
400
400
400
400
400
400
400
400
400
400
400
400
400
400
400
400
400
400
400
400
400
400
400
400
400
400
400
400
400
400
400
400
400
400
400
400
400
400
400
400
400
400
400
400
400
400
400
400
400
400
400
400
400
400
400
400
400
400
400
400
400
400
400
400
400
400
400
400
400
400
400
400
400
400
400
400
400
400
400
400
400
400
400
400
400
400
400
400
400
400
400
400
400
400
400
400
400
400
400
400
400
400
400
400
400
400
400
400
400
400
400
400
400
400
400
400
400
400
400
400
400
400
400
400
400
400
400
400
400
400
400
400
400
400
400
400
400
400
400
400
400
400
400
400
400
400
400
400
400
400
400
400
400
400
400
400
400
400
400
400
400
400
400
400
400
400
400
400
400
400
400
400
400
400
400
400
400
400
400
400
400
400
400
)
;

boundaryField
{
    sides
    {
        type            zeroGradient;
    }
    empty
    {
        type            empty;
    }
}


// ************************************************************************* //
