/*--------------------------------*- C++ -*----------------------------------*\
| =========                 |                                                 |
| \\      /  F ield         | OpenFOAM: The Open Source CFD Toolbox           |
|  \\    /   O peration     | Version:  4.1                                   |
|   \\  /    A nd           | Web:      www.OpenFOAM.org                      |
|    \\/     M anipulation  |                                                 |
\*---------------------------------------------------------------------------*/
FoamFile
{
    version     2.0;
    format      ascii;
    class       volVectorField;
    location    "0.0052";
    object      U;
}
// * * * * * * * * * * * * * * * * * * * * * * * * * * * * * * * * * * * * * //

dimensions      [0 1 -1 0 0 0 0];

internalField   nonuniform List<vector> 
1000
(
(-6.98319e-12 0 0)
(-3.66459e-12 0 0)
(-8.16981e-12 0 0)
(-4.6503e-12 0 0)
(-5.74693e-12 0 0)
(-7.93561e-12 0 0)
(-8.11703e-12 0 0)
(-5.45553e-12 0 0)
(-2.96656e-12 0 0)
(-5.90623e-12 0 0)
(-4.22188e-12 0 0)
(-5.98663e-12 0 0)
(-5.49843e-12 0 0)
(-7.06767e-12 0 0)
(-3.78993e-12 0 0)
(-5.34781e-12 0 0)
(-8.10351e-13 0 0)
(-5.40096e-12 0 0)
(5.72609e-13 0 0)
(-2.04124e-13 0 0)
(1.82055e-12 0 0)
(-1.73099e-12 0 0)
(-1.59554e-12 0 0)
(-2.66234e-12 0 0)
(9.2665e-13 0 0)
(-3.33351e-12 0 0)
(-2.6469e-12 0 0)
(-4.5954e-12 0 0)
(-8.06088e-12 0 0)
(-9.67639e-12 0 0)
(-1.34559e-11 0 0)
(-1.47288e-11 0 0)
(-1.74101e-11 0 0)
(-1.73917e-11 0 0)
(-2.17914e-11 0 0)
(-1.84349e-11 0 0)
(-2.0908e-11 0 0)
(-1.8527e-11 0 0)
(-2.43217e-11 0 0)
(-2.21941e-11 0 0)
(-2.43422e-11 0 0)
(-2.1042e-11 0 0)
(-2.34423e-11 0 0)
(-2.05052e-11 0 0)
(-2.42597e-11 0 0)
(-2.1185e-11 0 0)
(-2.37252e-11 0 0)
(-2.20888e-11 0 0)
(-2.28392e-11 0 0)
(-1.84247e-11 0 0)
(-2.03906e-11 0 0)
(-1.68268e-11 0 0)
(-1.74925e-11 0 0)
(-1.98752e-11 0 0)
(-2.0089e-11 0 0)
(-2.20583e-11 0 0)
(-2.11699e-11 0 0)
(-2.08397e-11 0 0)
(-1.79787e-11 0 0)
(-1.86777e-11 0 0)
(-1.30547e-11 0 0)
(-1.31985e-11 0 0)
(-8.08598e-12 0 0)
(-8.94475e-12 0 0)
(-6.76424e-12 0 0)
(-1.13816e-11 0 0)
(-9.30857e-12 0 0)
(-9.15557e-12 0 0)
(-3.05341e-12 0 0)
(-8.3665e-12 0 0)
(-4.62533e-12 0 0)
(-7.37543e-12 0 0)
(-5.81477e-12 0 0)
(-1.10141e-11 0 0)
(-6.94476e-12 0 0)
(-1.10956e-11 0 0)
(-9.36596e-12 0 0)
(-1.09803e-11 0 0)
(-7.80375e-12 0 0)
(-7.01309e-12 0 0)
(-6.90149e-12 0 0)
(-7.73166e-12 0 0)
(-6.14076e-12 0 0)
(-5.37995e-12 0 0)
(-7.77032e-12 0 0)
(-6.93041e-12 0 0)
(-6.73052e-12 0 0)
(-2.54671e-12 0 0)
(-3.88068e-12 0 0)
(1.26244e-12 0 0)
(-5.79489e-12 0 0)
(1.21761e-12 0 0)
(-2.86801e-12 0 0)
(5.58199e-13 0 0)
(-1.41591e-12 0 0)
(1.97867e-12 0 0)
(2.75387e-12 0 0)
(4.21975e-12 0 0)
(3.65159e-12 0 0)
(4.83317e-12 0 0)
(6.8382e-12 0 0)
(8.66104e-12 0 0)
(1.01848e-11 0 0)
(4.66268e-12 0 0)
(6.98034e-12 0 0)
(7.0787e-12 0 0)
(6.67063e-12 0 0)
(1.08522e-11 0 0)
(1.03574e-11 0 0)
(1.20594e-11 0 0)
(1.20734e-11 0 0)
(1.13787e-11 0 0)
(1.17968e-11 0 0)
(1.05849e-11 0 0)
(1.15429e-11 0 0)
(1.05956e-11 0 0)
(1.11471e-11 0 0)
(1.03026e-11 0 0)
(1.08739e-11 0 0)
(1.18069e-11 0 0)
(1.33907e-11 0 0)
(1.4851e-11 0 0)
(1.25601e-11 0 0)
(1.31567e-11 0 0)
(1.34465e-11 0 0)
(1.46726e-11 0 0)
(1.54988e-11 0 0)
(1.67877e-11 0 0)
(1.41492e-11 0 0)
(1.77565e-11 0 0)
(1.75562e-11 0 0)
(1.62701e-11 0 0)
(1.7248e-11 0 0)
(1.69752e-11 0 0)
(1.70581e-11 0 0)
(1.83479e-11 0 0)
(1.78183e-11 0 0)
(1.74867e-11 0 0)
(1.68413e-11 0 0)
(1.7419e-11 0 0)
(1.82476e-11 0 0)
(1.97458e-11 0 0)
(1.88974e-11 0 0)
(1.82968e-11 0 0)
(1.7173e-11 0 0)
(1.71493e-11 0 0)
(1.8527e-11 0 0)
(1.55682e-11 0 0)
(1.75855e-11 0 0)
(1.68022e-11 0 0)
(1.82826e-11 0 0)
(1.63799e-11 0 0)
(1.79846e-11 0 0)
(1.3868e-11 0 0)
(1.65884e-11 0 0)
(1.58787e-11 0 0)
(1.47559e-11 0 0)
(1.40368e-11 0 0)
(1.30839e-11 0 0)
(1.51482e-11 0 0)
(1.49579e-11 0 0)
(1.45565e-11 0 0)
(1.53483e-11 0 0)
(1.39122e-11 0 0)
(1.21882e-11 0 0)
(1.36984e-11 0 0)
(1.28602e-11 0 0)
(1.34601e-11 0 0)
(1.57009e-11 0 0)
(1.79637e-11 0 0)
(1.81405e-11 0 0)
(1.70941e-11 0 0)
(1.57564e-11 0 0)
(1.50018e-11 0 0)
(1.3791e-11 0 0)
(1.53749e-11 0 0)
(1.45624e-11 0 0)
(1.75551e-11 0 0)
(1.44616e-11 0 0)
(1.63113e-11 0 0)
(1.24804e-11 0 0)
(1.37271e-11 0 0)
(1.33825e-11 0 0)
(1.48984e-11 0 0)
(1.52369e-11 0 0)
(1.50544e-11 0 0)
(1.37238e-11 0 0)
(1.33672e-11 0 0)
(1.13784e-11 0 0)
(1.28275e-11 0 0)
(1.39452e-11 0 0)
(1.10093e-11 0 0)
(1.42981e-11 0 0)
(9.54753e-12 0 0)
(1.22833e-11 0 0)
(1.02419e-11 0 0)
(1.3377e-11 0 0)
(1.07592e-11 0 0)
(1.28606e-11 0 0)
(9.21407e-12 0 0)
(1.3654e-11 0 0)
(8.8088e-12 0 0)
(1.08442e-11 0 0)
(9.40453e-12 0 0)
(1.30375e-11 0 0)
(1.21866e-11 0 0)
(1.22296e-11 0 0)
(9.5998e-12 0 0)
(1.12949e-11 0 0)
(1.27351e-11 0 0)
(1.13935e-11 0 0)
(1.08605e-11 0 0)
(1.01019e-11 0 0)
(1.09941e-11 0 0)
(8.49968e-12 0 0)
(1.29603e-11 0 0)
(8.88161e-12 0 0)
(1.37721e-11 0 0)
(8.84322e-12 0 0)
(1.32614e-11 0 0)
(9.99297e-12 0 0)
(1.33099e-11 0 0)
(1.17278e-11 0 0)
(1.57201e-11 0 0)
(8.94607e-12 0 0)
(1.35573e-11 0 0)
(9.89519e-12 0 0)
(1.28598e-11 0 0)
(8.80881e-12 0 0)
(1.13251e-11 0 0)
(1.09842e-11 0 0)
(1.22171e-11 0 0)
(1.19385e-11 0 0)
(1.05591e-11 0 0)
(1.25162e-11 0 0)
(1.06587e-11 0 0)
(1.36808e-11 0 0)
(1.49692e-11 0 0)
(3.32139e-11 0 0)
(5.89342e-11 0 0)
(1.23936e-10 0 0)
(2.49215e-10 0 0)
(5.1617e-10 0 0)
(1.0468e-09 0 0)
(2.12803e-09 0 0)
(4.28409e-09 0 0)
(8.57849e-09 0 0)
(1.70356e-08 0 0)
(3.35814e-08 0 0)
(6.56722e-08 0 0)
(1.27436e-07 0 0)
(2.45335e-07 0 0)
(4.68564e-07 0 0)
(8.87699e-07 0 0)
(1.66803e-06 0 0)
(3.1083e-06 0 0)
(5.74342e-06 0 0)
(1.05216e-05 0 0)
(1.91072e-05 0 0)
(3.43908e-05 0 0)
(6.13407e-05 0 0)
(0.000108403 0 0)
(0.000189775 0 0)
(0.000329049 0 0)
(0.000564956 0 0)
(0.0009603 0 0)
(0.00161561 0 0)
(0.00268965 0 0)
(0.00442966 0 0)
(0.00721501 0 0)
(0.0116188 0 0)
(0.018493 0 0)
(0.0290814 0 0)
(0.0451671 0 0)
(0.0692551 0 0)
(0.104788 0 0)
(0.156387 0 0)
(0.230089 0 0)
(0.333557 0 0)
(0.476186 0 0)
(0.669051 0 0)
(0.924589 0 0)
(1.2559 0 0)
(1.67555 0 0)
(2.19356 0 0)
(2.81428 0 0)
(3.53368 0 0)
(4.34189 0 0)
(5.22879 0 0)
(6.18631 0 0)
(7.20756 0 0)
(8.28604 0 0)
(9.41543 0 0)
(10.5898 0 0)
(11.8035 0 0)
(13.0516 0 0)
(14.3297 0 0)
(15.634 0 0)
(16.961 0 0)
(18.3079 0 0)
(19.6724 0 0)
(21.0522 0 0)
(22.4456 0 0)
(23.8512 0 0)
(25.2676 0 0)
(26.6937 0 0)
(28.1285 0 0)
(29.5712 0 0)
(31.0212 0 0)
(32.4776 0 0)
(33.9401 0 0)
(35.408 0 0)
(36.881 0 0)
(38.3586 0 0)
(39.8406 0 0)
(41.3265 0 0)
(42.8162 0 0)
(44.3092 0 0)
(45.8056 0 0)
(47.3049 0 0)
(48.807 0 0)
(50.3117 0 0)
(51.8188 0 0)
(53.3283 0 0)
(54.8399 0 0)
(56.3535 0 0)
(57.869 0 0)
(59.3863 0 0)
(60.9052 0 0)
(62.4257 0 0)
(63.9476 0 0)
(65.4708 0 0)
(66.9953 0 0)
(68.521 0 0)
(70.0478 0 0)
(71.5755 0 0)
(73.1042 0 0)
(74.6338 0 0)
(76.1641 0 0)
(77.6951 0 0)
(79.2267 0 0)
(80.7589 0 0)
(82.2916 0 0)
(83.8246 0 0)
(85.3581 0 0)
(86.8918 0 0)
(88.4258 0 0)
(89.9599 0 0)
(91.4941 0 0)
(93.0283 0 0)
(94.5625 0 0)
(96.0966 0 0)
(97.6306 0 0)
(99.1642 0 0)
(100.698 0 0)
(102.231 0 0)
(103.763 0 0)
(105.295 0 0)
(106.827 0 0)
(108.357 0 0)
(109.887 0 0)
(111.417 0 0)
(112.945 0 0)
(114.472 0 0)
(115.999 0 0)
(117.524 0 0)
(119.048 0 0)
(120.57 0 0)
(122.091 0 0)
(123.611 0 0)
(125.129 0 0)
(126.645 0 0)
(128.159 0 0)
(129.671 0 0)
(131.181 0 0)
(132.688 0 0)
(134.194 0 0)
(135.696 0 0)
(137.196 0 0)
(138.693 0 0)
(140.187 0 0)
(141.677 0 0)
(143.164 0 0)
(144.647 0 0)
(146.126 0 0)
(147.601 0 0)
(149.071 0 0)
(150.536 0 0)
(151.997 0 0)
(153.452 0 0)
(154.901 0 0)
(156.343 0 0)
(157.78 0 0)
(159.209 0 0)
(160.63 0 0)
(162.044 0 0)
(163.449 0 0)
(164.844 0 0)
(166.23 0 0)
(167.605 0 0)
(168.969 0 0)
(170.321 0 0)
(171.66 0 0)
(172.984 0 0)
(174.294 0 0)
(175.588 0 0)
(176.864 0 0)
(178.121 0 0)
(179.359 0 0)
(180.575 0 0)
(181.768 0 0)
(182.936 0 0)
(184.077 0 0)
(185.19 0 0)
(186.271 0 0)
(187.32 0 0)
(188.333 0 0)
(189.309 0 0)
(190.245 0 0)
(191.138 0 0)
(191.987 0 0)
(192.788 0 0)
(193.54 0 0)
(194.241 0 0)
(194.888 0 0)
(195.48 0 0)
(196.018 0 0)
(196.5 0 0)
(196.926 0 0)
(197.297 0 0)
(197.617 0 0)
(197.885 0 0)
(198.106 0 0)
(198.286 0 0)
(198.425 0 0)
(198.53 0 0)
(198.607 0 0)
(198.659 0 0)
(198.69 0 0)
(198.708 0 0)
(198.715 0 0)
(198.716 0 0)
(198.716 0 0)
(198.715 0 0)
(198.712 0 0)
(198.706 0 0)
(198.694 0 0)
(198.677 0 0)
(198.659 0 0)
(198.643 0 0)
(198.629 0 0)
(198.618 0 0)
(198.609 0 0)
(198.602 0 0)
(198.598 0 0)
(198.595 0 0)
(198.593 0 0)
(198.592 0 0)
(198.591 0 0)
(198.59 0 0)
(198.589 0 0)
(198.588 0 0)
(198.587 0 0)
(198.587 0 0)
(198.586 0 0)
(198.585 0 0)
(198.585 0 0)
(198.584 0 0)
(198.583 0 0)
(198.583 0 0)
(198.582 0 0)
(198.581 0 0)
(198.58 0 0)
(198.58 0 0)
(198.579 0 0)
(198.579 0 0)
(198.578 0 0)
(198.578 0 0)
(198.577 0 0)
(198.577 0 0)
(198.576 0 0)
(198.575 0 0)
(198.575 0 0)
(198.574 0 0)
(198.574 0 0)
(198.573 0 0)
(198.573 0 0)
(198.572 0 0)
(198.571 0 0)
(198.571 0 0)
(198.57 0 0)
(198.57 0 0)
(198.569 0 0)
(198.569 0 0)
(198.568 0 0)
(198.568 0 0)
(198.567 0 0)
(198.567 0 0)
(198.566 0 0)
(198.566 0 0)
(198.565 0 0)
(198.565 0 0)
(198.564 0 0)
(198.564 0 0)
(198.563 0 0)
(198.563 0 0)
(198.562 0 0)
(198.561 0 0)
(198.561 0 0)
(198.56 0 0)
(198.56 0 0)
(198.559 0 0)
(198.559 0 0)
(198.558 0 0)
(198.558 0 0)
(198.557 0 0)
(198.557 0 0)
(198.556 0 0)
(198.556 0 0)
(198.555 0 0)
(198.555 0 0)
(198.554 0 0)
(198.554 0 0)
(198.554 0 0)
(198.553 0 0)
(198.553 0 0)
(198.552 0 0)
(198.552 0 0)
(198.552 0 0)
(198.552 0 0)
(198.551 0 0)
(198.551 0 0)
(198.551 0 0)
(198.55 0 0)
(198.55 0 0)
(198.55 0 0)
(198.55 0 0)
(198.55 0 0)
(198.549 0 0)
(198.549 0 0)
(198.549 0 0)
(198.549 0 0)
(198.549 0 0)
(198.548 0 0)
(198.548 0 0)
(198.548 0 0)
(198.548 0 0)
(198.548 0 0)
(198.548 0 0)
(198.548 0 0)
(198.548 0 0)
(198.547 0 0)
(198.547 0 0)
(198.547 0 0)
(198.547 0 0)
(198.547 0 0)
(198.547 0 0)
(198.546 0 0)
(198.546 0 0)
(198.546 0 0)
(198.545 0 0)
(198.545 0 0)
(198.544 0 0)
(198.544 0 0)
(198.544 0 0)
(198.543 0 0)
(198.543 0 0)
(198.543 0 0)
(198.542 0 0)
(198.542 0 0)
(198.542 0 0)
(198.541 0 0)
(198.541 0 0)
(198.541 0 0)
(198.54 0 0)
(198.54 0 0)
(198.54 0 0)
(198.54 0 0)
(198.539 0 0)
(198.538 0 0)
(198.538 0 0)
(198.537 0 0)
(198.536 0 0)
(198.536 0 0)
(198.537 0 0)
(198.538 0 0)
(198.537 0 0)
(198.536 0 0)
(198.536 0 0)
(198.535 0 0)
(198.535 0 0)
(198.535 0 0)
(198.535 0 0)
(198.536 0 0)
(198.542 0 0)
(198.555 0 0)
(198.576 0 0)
(198.623 0 0)
(198.734 0 0)
(198.855 0 0)
(198.804 0 0)
(198.64 0 0)
(198.55 0 0)
(198.507 0 0)
(198.477 0 0)
(198.473 0 0)
(198.501 0 0)
(198.526 0 0)
(198.519 0 0)
(198.505 0 0)
(198.52 0 0)
(198.548 0 0)
(198.546 0 0)
(198.518 0 0)
(198.514 0 0)
(198.545 0 0)
(198.556 0 0)
(198.527 0 0)
(198.505 0 0)
(198.527 0 0)
(198.558 0 0)
(198.55 0 0)
(198.516 0 0)
(198.509 0 0)
(198.539 0 0)
(198.551 0 0)
(198.522 0 0)
(198.501 0 0)
(198.523 0 0)
(198.55 0 0)
(198.536 0 0)
(198.503 0 0)
(198.507 0 0)
(198.541 0 0)
(198.548 0 0)
(198.517 0 0)
(198.499 0 0)
(198.524 0 0)
(198.549 0 0)
(198.529 0 0)
(198.498 0 0)
(198.51 0 0)
(198.546 0 0)
(198.542 0 0)
(198.506 0 0)
(198.497 0 0)
(198.531 0 0)
(198.552 0 0)
(198.523 0 0)
(198.492 0 0)
(198.512 0 0)
(198.548 0 0)
(198.539 0 0)
(198.501 0 0)
(198.496 0 0)
(198.531 0 0)
(198.548 0 0)
(198.518 0 0)
(198.49 0 0)
(198.512 0 0)
(198.546 0 0)
(198.533 0 0)
(198.495 0 0)
(198.497 0 0)
(198.535 0 0)
(198.544 0 0)
(198.507 0 0)
(198.485 0 0)
(198.515 0 0)
(198.546 0 0)
(198.526 0 0)
(198.488 0 0)
(198.495 0 0)
(198.533 0 0)
(198.538 0 0)
(198.501 0 0)
(198.483 0 0)
(198.514 0 0)
(198.541 0 0)
(198.517 0 0)
(198.481 0 0)
(198.495 0 0)
(198.533 0 0)
(198.53 0 0)
(198.491 0 0)
(198.479 0 0)
(198.513 0 0)
(198.536 0 0)
(198.507 0 0)
(198.473 0 0)
(198.491 0 0)
(198.528 0 0)
(198.519 0 0)
(198.479 0 0)
(198.472 0 0)
(198.508 0 0)
(198.525 0 0)
(198.49 0 0)
(198.461 0 0)
(198.485 0 0)
(198.519 0 0)
(198.499 0 0)
(198.457 0 0)
(198.461 0 0)
(198.501 0 0)
(198.505 0 0)
(198.462 0 0)
(198.438 0 0)
(198.47 0 0)
(198.499 0 0)
(198.47 0 0)
(198.425 0 0)
(198.434 0 0)
(198.473 0 0)
(198.469 0 0)
(198.42 0 0)
(198.399 0 0)
(198.432 0 0)
(198.453 0 0)
(198.415 0 0)
(198.369 0 0)
(198.381 0 0)
(198.417 0 0)
(198.399 0 0)
(198.343 0 0)
(198.325 0 0)
(198.357 0 0)
(198.367 0 0)
(198.315 0 0)
(198.266 0 0)
(198.277 0 0)
(198.304 0 0)
(198.272 0 0)
(198.206 0 0)
(198.185 0 0)
(198.208 0 0)
(198.2 0 0)
(198.134 0 0)
(198.079 0 0)
(198.08 0 0)
(198.089 0 0)
(198.036 0 0)
(197.958 0 0)
(197.923 0 0)
(197.923 0 0)
(197.892 0 0)
(197.808 0 0)
(197.737 0 0)
(197.709 0 0)
(197.684 0 0)
(197.604 0 0)
(197.502 0 0)
(197.435 0 0)
(197.394 0 0)
(197.316 0 0)
(197.183 0 0)
(197.063 0 0)
(196.984 0 0)
(196.907 0 0)
(196.753 0 0)
(196.562 0 0)
(196.424 0 0)
(196.326 0 0)
(196.163 0 0)
(195.895 0 0)
(195.649 0 0)
(195.477 0 0)
(195.28 0 0)
(194.927 0 0)
(194.515 0 0)
(194.202 0 0)
(193.95 0 0)
(193.512 0 0)
(192.8 0 0)
(192.074 0 0)
(191.464 0 0)
(190.53 0 0)
(187.949 0 0)
(181.654 0 0)
(165.126 0 0)
(114.81 0 0)
(44.7678 0 0)
(11.8787 0 0)
(2.93109 0 0)
(0.700993 0 0)
(0.166251 0 0)
(0.0393431 0 0)
(0.00930465 0 0)
(0.00219995 0 0)
(0.000520102 0 0)
(0.000122957 0 0)
(2.90679e-05 0 0)
(6.87175e-06 0 0)
(1.62447e-06 0 0)
(3.8402e-07 0 0)
(9.07814e-08 0 0)
(2.14654e-08 0 0)
(5.07693e-09 0 0)
(1.20772e-09 0 0)
(2.89331e-10 0 0)
(7.43548e-11 0 0)
(2.04097e-11 0 0)
(1.13174e-11 0 0)
(3.91908e-12 0 0)
(5.20772e-12 0 0)
(3.11467e-13 0 0)
(5.06808e-12 0 0)
(5.53367e-12 0 0)
(9.4457e-12 0 0)
(9.62523e-12 0 0)
(9.82825e-12 0 0)
(7.17668e-12 0 0)
(8.82522e-12 0 0)
(7.34719e-12 0 0)
(7.70676e-12 0 0)
(6.4569e-12 0 0)
(3.78262e-12 0 0)
(4.02026e-12 0 0)
(7.08159e-12 0 0)
(8.66321e-12 0 0)
(9.74221e-12 0 0)
(8.34963e-12 0 0)
(1.0104e-11 0 0)
(9.14972e-12 0 0)
(5.75403e-12 0 0)
(4.55793e-12 0 0)
(4.31461e-12 0 0)
(5.39697e-12 0 0)
(4.16761e-12 0 0)
(6.01706e-12 0 0)
(5.64167e-12 0 0)
(2.90818e-12 0 0)
(1.66997e-12 0 0)
(2.36986e-12 0 0)
(3.70543e-12 0 0)
(6.56716e-12 0 0)
(8.98976e-12 0 0)
(8.06356e-12 0 0)
(7.62058e-12 0 0)
(7.47934e-12 0 0)
(8.49007e-12 0 0)
(9.28854e-12 0 0)
(6.1532e-12 0 0)
(6.99764e-12 0 0)
(4.9986e-12 0 0)
(6.48422e-12 0 0)
(3.54499e-12 0 0)
(5.60051e-12 0 0)
(5.09476e-12 0 0)
(4.06531e-12 0 0)
(2.54056e-12 0 0)
(4.99233e-13 0 0)
(2.34423e-12 0 0)
(7.39583e-13 0 0)
(9.87829e-13 0 0)
(2.4664e-12 0 0)
(-9.77729e-13 0 0)
(4.39069e-12 0 0)
(1.66579e-12 0 0)
(5.62803e-12 0 0)
(5.1834e-12 0 0)
(5.94378e-12 0 0)
(4.72607e-12 0 0)
(3.53274e-12 0 0)
(2.87796e-12 0 0)
(2.72185e-12 0 0)
(5.7524e-12 0 0)
(3.33514e-12 0 0)
(2.74681e-12 0 0)
(4.30125e-12 0 0)
(6.15983e-12 0 0)
(2.62749e-12 0 0)
(5.47843e-12 0 0)
(2.42081e-12 0 0)
(4.33178e-12 0 0)
(3.23013e-12 0 0)
(1.93344e-12 0 0)
(1.74178e-12 0 0)
(-2.08087e-12 0 0)
(1.07364e-12 0 0)
(1.41229e-12 0 0)
(2.55951e-12 0 0)
(5.82613e-12 0 0)
(6.83856e-12 0 0)
(8.70261e-12 0 0)
(7.9639e-12 0 0)
(9.85103e-12 0 0)
(9.79499e-12 0 0)
(1.18373e-11 0 0)
(1.22057e-11 0 0)
(1.21494e-11 0 0)
(1.42037e-11 0 0)
(1.27526e-11 0 0)
(1.38663e-11 0 0)
(1.54516e-11 0 0)
(1.66775e-11 0 0)
(1.4763e-11 0 0)
(1.77744e-11 0 0)
(1.54257e-11 0 0)
(1.52853e-11 0 0)
(1.5839e-11 0 0)
(1.78796e-11 0 0)
(1.84024e-11 0 0)
(1.95735e-11 0 0)
(1.91091e-11 0 0)
(2.21712e-11 0 0)
(2.17759e-11 0 0)
(2.42101e-11 0 0)
(2.58487e-11 0 0)
(2.68863e-11 0 0)
(2.56073e-11 0 0)
(2.59625e-11 0 0)
(2.49426e-11 0 0)
(2.53682e-11 0 0)
(2.31688e-11 0 0)
(1.95349e-11 0 0)
(1.79963e-11 0 0)
(1.71049e-11 0 0)
(1.84257e-11 0 0)
(1.64906e-11 0 0)
(1.88087e-11 0 0)
(1.90426e-11 0 0)
(1.80022e-11 0 0)
(1.68496e-11 0 0)
(1.8357e-11 0 0)
(1.81832e-11 0 0)
(2.06959e-11 0 0)
(1.82167e-11 0 0)
(2.1537e-11 0 0)
(1.97029e-11 0 0)
(2.04355e-11 0 0)
(1.85955e-11 0 0)
(1.8345e-11 0 0)
(1.75124e-11 0 0)
(2.00925e-11 0 0)
(1.99449e-11 0 0)
(1.8468e-11 0 0)
(1.98709e-11 0 0)
(2.18651e-11 0 0)
(2.2213e-11 0 0)
(1.98318e-11 0 0)
(2.04683e-11 0 0)
(2.25762e-11 0 0)
(2.2989e-11 0 0)
(2.50883e-11 0 0)
(2.413e-11 0 0)
(2.69845e-11 0 0)
(2.42629e-11 0 0)
(2.42801e-11 0 0)
(2.4018e-11 0 0)
(2.70356e-11 0 0)
(2.48396e-11 0 0)
(2.60993e-11 0 0)
(2.71603e-11 0 0)
(2.92832e-11 0 0)
(3.05264e-11 0 0)
(2.98064e-11 0 0)
(2.85845e-11 0 0)
(2.94705e-11 0 0)
(3.03112e-11 0 0)
(3.06157e-11 0 0)
(3.09417e-11 0 0)
(3.12813e-11 0 0)
(3.40126e-11 0 0)
(3.38309e-11 0 0)
(3.45483e-11 0 0)
(3.44533e-11 0 0)
(3.55637e-11 0 0)
(3.30048e-11 0 0)
(3.34588e-11 0 0)
(3.32956e-11 0 0)
(3.55305e-11 0 0)
(3.30573e-11 0 0)
(3.27823e-11 0 0)
(3.00149e-11 0 0)
(3.09892e-11 0 0)
(2.87878e-11 0 0)
(2.76844e-11 0 0)
(2.71959e-11 0 0)
(2.8756e-11 0 0)
(2.95841e-11 0 0)
(3.01039e-11 0 0)
(3.107e-11 0 0)
(3.24763e-11 0 0)
(3.53201e-11 0 0)
(3.52461e-11 0 0)
(3.55591e-11 0 0)
(3.59868e-11 0 0)
(3.61118e-11 0 0)
(3.59425e-11 0 0)
(3.58572e-11 0 0)
(3.39115e-11 0 0)
(3.51494e-11 0 0)
(3.24819e-11 0 0)
(3.51843e-11 0 0)
(3.10253e-11 0 0)
(3.45645e-11 0 0)
(3.07316e-11 0 0)
(3.28571e-11 0 0)
(2.7457e-11 0 0)
)
;

boundaryField
{
    sides
    {
        type            zeroGradient;
    }
    empty
    {
        type            empty;
    }
}


// ************************************************************************* //
