/*--------------------------------*- C++ -*----------------------------------*\
| =========                 |                                                 |
| \\      /  F ield         | OpenFOAM: The Open Source CFD Toolbox           |
|  \\    /   O peration     | Version:  4.1                                   |
|   \\  /    A nd           | Web:      www.OpenFOAM.org                      |
|    \\/     M anipulation  |                                                 |
\*---------------------------------------------------------------------------*/
FoamFile
{
    version     2.0;
    format      ascii;
    class       volScalarField;
    location    "0.0018";
    object      mag(U);
}
// * * * * * * * * * * * * * * * * * * * * * * * * * * * * * * * * * * * * * //

dimensions      [0 1 -1 0 0 0 0];

internalField   nonuniform List<scalar> 
1000
(
9.89033e-12
1.05257e-11
1.40067e-11
1.1646e-11
1.11651e-11
1.12366e-11
9.61412e-12
1.1896e-11
1.11283e-11
1.1375e-11
8.35191e-12
1.07629e-11
8.75517e-12
9.28981e-12
8.34685e-12
1.00326e-11
9.0583e-12
9.56456e-12
7.21558e-12
1.14008e-11
1.05736e-11
1.13496e-11
1.22184e-11
1.46105e-11
1.19096e-11
1.26035e-11
7.63898e-12
9.28359e-12
6.46399e-12
8.40909e-12
6.39697e-12
4.6133e-12
4.08888e-12
3.17766e-12
4.61245e-12
8.63559e-13
3.98002e-12
3.09212e-12
5.59355e-12
3.50531e-12
4.72803e-12
3.97532e-12
2.53831e-12
1.74557e-12
5.90241e-13
3.11733e-12
3.04907e-13
1.8312e-13
1.97958e-12
3.52549e-12
4.78953e-13
4.07142e-12
1.20492e-12
4.23279e-12
1.66305e-12
2.18883e-13
1.94216e-12
2.44658e-12
4.36914e-12
5.19908e-12
3.16426e-12
5.5946e-12
5.7143e-12
5.98713e-12
1.52809e-12
3.24862e-12
3.08986e-12
6.26219e-12
3.02201e-14
1.27259e-12
3.66404e-12
1.6199e-12
1.60533e-12
2.14112e-12
2.3191e-12
4.55204e-13
1.53359e-13
1.49414e-12
1.93437e-12
4.11185e-12
5.43652e-12
4.48069e-12
6.26418e-12
7.2537e-12
6.65767e-12
8.80724e-12
7.08265e-12
7.70301e-12
6.38111e-12
9.96945e-12
6.60129e-12
1.02504e-11
6.49491e-12
6.76556e-12
5.97007e-12
7.11346e-12
6.978e-12
6.03046e-12
4.44125e-12
6.06224e-12
7.75127e-12
6.18992e-12
6.86178e-12
5.3863e-12
6.24738e-12
4.63774e-12
4.92527e-12
6.53927e-12
6.7758e-12
6.43685e-12
3.86639e-12
2.12974e-12
2.09396e-12
2.64029e-12
4.7965e-13
4.40184e-12
2.24634e-12
7.4e-13
9.59401e-14
1.82627e-12
9.61023e-13
2.61258e-12
4.06121e-12
4.4269e-12
5.61197e-12
3.89199e-12
5.44254e-12
2.74572e-12
1.65193e-12
3.11587e-12
1.76276e-12
3.98371e-12
1.08339e-12
1.23446e-12
1.6491e-12
4.55457e-12
2.25739e-12
2.17556e-12
4.70358e-12
9.25147e-13
9.41814e-13
1.6422e-12
2.02593e-12
2.18089e-12
3.74363e-12
1.7902e-12
7.47008e-13
2.77882e-12
3.33797e-13
3.8448e-13
3.93174e-12
1.75063e-12
3.62255e-12
3.05363e-13
1.9618e-12
4.16527e-12
3.71624e-12
5.66682e-12
6.18925e-12
8.042e-12
6.96328e-12
7.40547e-12
5.7703e-12
6.01369e-12
3.86129e-12
2.44743e-12
3.25971e-12
1.46537e-12
5.81043e-13
2.75304e-12
1.70293e-12
5.13772e-12
5.5199e-12
4.76768e-12
4.82388e-12
2.02844e-12
1.56979e-12
1.44397e-12
2.91142e-12
2.64175e-12
5.68146e-13
2.24391e-14
1.53845e-12
1.16397e-12
1.07835e-12
2.00681e-12
1.13648e-12
1.56955e-12
1.12652e-12
1.28252e-12
3.92421e-13
3.62523e-13
3.83699e-12
2.51654e-12
4.84425e-12
4.44842e-12
6.59178e-12
4.26956e-12
2.84247e-12
7.08546e-13
4.87651e-12
7.18565e-13
3.04693e-12
2.70103e-12
4.28075e-12
3.33356e-12
2.59293e-12
2.69942e-12
2.73853e-12
6.57568e-12
6.37798e-12
5.75147e-12
6.06022e-12
6.38186e-12
3.00509e-12
6.83294e-12
3.48579e-12
4.86235e-12
1.58448e-12
2.21963e-12
8.77864e-13
4.38502e-12
4.62869e-13
2.96645e-12
7.12784e-13
3.62765e-12
2.67748e-12
3.31982e-12
5.06422e-12
3.76282e-12
2.65794e-12
4.59528e-12
4.39362e-12
2.96313e-12
1.87645e-12
1.23197e-12
2.12443e-12
5.53061e-12
2.36834e-12
2.80971e-12
4.20676e-12
3.63401e-12
1.79196e-12
1.48611e-13
1.77192e-12
1.62392e-12
6.21736e-13
1.22516e-12
2.00163e-13
2.11096e-12
2.29528e-12
1.0443e-12
2.95363e-12
2.57912e-12
1.6799e-12
1.04532e-12
2.64408e-12
2.39438e-12
2.03013e-12
2.13784e-12
2.09688e-12
1.61845e-12
3.79643e-13
1.34859e-12
5.47516e-13
2.91382e-13
2.98715e-12
1.39055e-12
2.48237e-13
1.70466e-12
1.69194e-13
2.02984e-12
2.28557e-12
1.03273e-12
7.13523e-13
2.03827e-12
1.8409e-12
3.1194e-12
4.49438e-13
3.14438e-13
1.17978e-12
7.05535e-13
6.26027e-13
2.05667e-12
3.01144e-12
5.16708e-12
5.7805e-12
7.18317e-12
6.9477e-12
7.42861e-12
5.50622e-12
3.15004e-12
3.91688e-12
3.64059e-12
1.33343e-12
3.42201e-12
1.72116e-12
2.96476e-12
3.18707e-12
5.12423e-12
5.93946e-12
1.66706e-12
3.85789e-12
6.56673e-13
2.54168e-12
1.53181e-12
2.19858e-12
2.34616e-12
1.72811e-12
1.7046e-12
2.81196e-12
2.12092e-12
1.7105e-12
2.49509e-12
8.44559e-14
1.11642e-12
1.52728e-12
4.69113e-14
5.02631e-14
2.7985e-16
8.78547e-13
3.57925e-21
8.78546e-13
2.59519e-16
7.23505e-13
7.03365e-14
1.22757e-12
1.4889e-12
1.25909e-12
9.00771e-13
5.70781e-14
1.81065e-12
7.14733e-14
1.07332e-12
1.0093e-12
7.84268e-13
1.37719e-12
2.07426e-12
5.27481e-13
1.48435e-12
3.66023e-13
3.44891e-13
1.44572e-16
3.92145e-13
9.74261e-13
8.17645e-13
1.20713e-12
8.00359e-13
7.16698e-13
1.70564e-12
1.84309e-12
2.3125e-12
2.56756e-12
3.17161e-13
1.86149e-12
6.56469e-13
4.59577e-14
9.43332e-13
7.58652e-14
1.33787e-12
1.79176e-12
4.76163e-13
2.04383e-12
1.16476e-12
6.34281e-13
1.66405e-12
1.74561e-12
1.27776e-12
2.12754e-13
2.18391e-12
3.28164e-13
2.12989e-12
2.97461e-12
1.62594e-12
3.3775e-12
1.39301e-12
2.44217e-13
6.44916e-13
2.43674e-12
4.77406e-13
3.83007e-13
8.4598e-13
3.43602e-12
3.12946e-12
9.71058e-13
9.7089e-14
2.85525e-12
5.57387e-13
3.83475e-12
1.01521e-11
3.03781e-11
8.8904e-11
2.55325e-10
7.14697e-10
1.95612e-09
5.26452e-09
1.39546e-08
3.64563e-08
9.38724e-08
2.38201e-07
5.95483e-07
1.46616e-06
3.55414e-06
8.47947e-06
1.99028e-05
4.594e-05
0.000104234
0.000232357
0.000508645
0.00109281
0.00230294
0.00475716
0.00962564
0.0190628
0.0369184
0.0698513
0.128978
0.232134
0.406683
0.69248
1.14403
1.83006
2.82711
4.19944
5.96405
8.09079
10.5429
13.289
16.2938
19.5182
22.9243
26.4784
30.152
33.9217
37.7692
41.6798
45.6419
49.6464
53.6858
57.7538
61.8454
65.9561
70.0821
74.2199
78.3664
82.5187
86.674
90.8299
94.9835
99.1324
103.274
107.405
111.524
115.626
119.709
123.769
127.803
131.807
135.775
139.704
143.587
147.418
151.192
154.899
158.534
162.084
165.545
168.898
172.141
175.25
178.22
181.035
183.677
186.139
188.395
190.438
192.259
193.844
195.19
196.3
197.185
197.852
198.324
198.636
198.827
198.91
198.928
198.933
198.936
198.929
198.908
198.864
198.8
198.732
198.676
198.635
198.608
198.594
198.589
198.587
198.585
198.584
198.581
198.578
198.576
198.574
198.572
198.57
198.569
198.568
198.566
198.565
198.564
198.562
198.561
198.559
198.558
198.556
198.554
198.553
198.551
198.549
198.55
198.55
198.547
198.544
198.541
198.537
198.538
198.556
198.6
198.703
198.933
199.029
198.843
198.636
198.503
198.438
198.438
198.479
198.5
198.48
198.463
198.491
198.524
198.504
198.457
198.452
198.486
198.493
198.447
198.413
198.439
198.469
198.441
198.385
198.374
198.401
198.401
198.348
198.3
198.302
198.316
198.279
198.21
198.171
198.173
198.154
198.077
197.999
197.967
197.95
197.876
197.765
197.682
197.633
197.562
197.419
197.263
197.149
197.047
196.873
196.62
196.4
196.243
196.044
195.666
195.249
194.934
194.628
194.12
193.383
192.429
190.941
188.315
182.184
162.542
105.645
37.4753
9.90696
2.42257
0.575426
0.135594
0.031899
0.00750226
0.00176411
0.00041475
9.74914e-05
2.29126e-05
5.38409e-06
1.26498e-06
2.97161e-07
6.97973e-08
1.63952e-08
3.84956e-09
9.03549e-10
2.11066e-10
4.80199e-11
1.15572e-11
2.51397e-12
3.47715e-13
3.48108e-12
5.98654e-13
7.38929e-13
1.98148e-12
3.25393e-12
2.02937e-12
1.18907e-12
1.37541e-12
1.01998e-12
4.45018e-14
5.85028e-14
3.34095e-13
8.27826e-13
4.50964e-13
1.06339e-12
3.82732e-13
6.41667e-13
2.06237e-12
4.34518e-12
9.10972e-13
4.81558e-13
1.25728e-12
5.29989e-14
2.53976e-12
1.41181e-12
2.71934e-13
1.5121e-12
1.90853e-12
9.88818e-13
3.82919e-12
1.48767e-12
1.10167e-12
8.78457e-14
3.92968e-12
3.47367e-12
7.4585e-13
6.50843e-13
5.75855e-13
2.53234e-13
1.32599e-12
5.3932e-13
3.49903e-13
7.10842e-13
3.38852e-13
2.92479e-12
1.57705e-12
3.30703e-13
1.67889e-12
4.92523e-13
6.57185e-13
7.13577e-13
7.31652e-13
1.34109e-12
1.42106e-12
1.41266e-12
9.49867e-13
8.79942e-13
2.20774e-13
1.01044e-12
1.52107e-12
1.06732e-12
1.06268e-12
7.46135e-13
1.14293e-13
2.90245e-12
2.81109e-12
2.59369e-12
2.28328e-12
1.65904e-12
2.00105e-12
3.57732e-13
1.31408e-12
3.40944e-12
6.80141e-13
8.78673e-13
3.57761e-12
1.55814e-12
4.38919e-12
2.59712e-12
2.83805e-12
2.35393e-12
2.07749e-13
1.98616e-12
8.90564e-13
7.40616e-13
7.90311e-13
1.68437e-12
3.80695e-12
1.23805e-13
3.01057e-13
9.64361e-13
1.27309e-12
1.97906e-12
2.6222e-12
4.18633e-13
4.01378e-12
8.69725e-14
3.38724e-13
1.37971e-12
1.04573e-12
2.0952e-12
5.42202e-12
4.84516e-12
5.42475e-12
2.50206e-12
3.70404e-12
4.68564e-12
3.98429e-12
2.3108e-12
8.24436e-13
8.40187e-13
1.93501e-12
3.35461e-12
4.00727e-13
2.04666e-12
3.36851e-12
5.41205e-14
5.59773e-14
3.98901e-12
1.44967e-12
5.81218e-12
1.92525e-12
4.05267e-12
1.69676e-13
6.80522e-13
7.03197e-13
4.4529e-13
2.85658e-12
2.95088e-13
6.10811e-13
1.85879e-12
1.51233e-12
2.61038e-12
7.57046e-13
1.92093e-12
5.8864e-13
2.76039e-12
8.45659e-14
1.62897e-12
9.46594e-13
1.98662e-12
3.06077e-13
1.8975e-12
2.56431e-12
3.56178e-12
1.97297e-12
4.87397e-12
8.6804e-13
3.08597e-12
2.89007e-12
8.47959e-13
1.56525e-12
1.433e-12
2.65082e-12
2.94939e-12
2.89347e-12
3.63727e-12
4.71872e-12
8.31474e-13
2.36492e-12
2.02844e-12
7.06907e-13
4.29351e-12
1.0984e-12
1.02251e-12
1.39422e-12
1.56591e-12
1.67727e-12
1.632e-12
2.19054e-12
8.54239e-13
8.42024e-13
1.10722e-12
7.83346e-13
3.97978e-13
9.30433e-13
5.16867e-13
3.7072e-12
2.828e-12
3.35231e-12
6.29898e-12
6.78974e-12
3.90429e-12
5.06418e-12
3.897e-12
2.50409e-12
2.8459e-12
2.84366e-12
9.41041e-13
5.61623e-13
1.97721e-14
3.25418e-12
8.77418e-13
1.2745e-12
2.4008e-12
6.44896e-13
1.23135e-12
1.07396e-12
2.32444e-13
2.79285e-12
9.02311e-13
2.74728e-12
1.44975e-12
8.54468e-13
4.15355e-12
4.70822e-12
2.14596e-12
4.46942e-12
3.22325e-12
1.53067e-12
4.70545e-12
2.75479e-12
4.1959e-12
4.11553e-12
9.32194e-13
4.47898e-13
2.06588e-12
3.38026e-13
6.90308e-13
3.05877e-12
1.71111e-13
2.40213e-12
6.36602e-13
2.01167e-12
1.14446e-12
1.11995e-12
2.16655e-12
1.4513e-12
4.09293e-12
3.418e-12
3.41501e-12
2.54073e-12
1.58552e-12
2.95594e-14
2.70877e-12
3.90733e-13
1.60907e-12
1.88793e-12
1.37188e-12
9.96931e-13
3.08846e-12
3.63094e-12
2.91199e-12
3.71461e-12
5.33544e-12
6.40676e-12
7.30226e-12
6.84434e-12
5.50943e-12
3.02314e-12
6.84965e-12
3.34191e-12
6.28696e-12
4.23043e-12
3.6016e-12
1.05124e-12
2.19007e-12
7.24338e-13
1.20533e-12
1.42209e-12
2.33735e-13
8.49203e-13
1.47066e-14
1.92437e-12
1.10279e-13
9.94561e-13
6.584e-13
1.38213e-12
1.42597e-12
3.25946e-12
5.1417e-12
4.27102e-12
1.10108e-12
4.25641e-12
6.21527e-13
3.85718e-12
2.12347e-12
1.63707e-12
1.70681e-12
4.39009e-12
6.01791e-12
2.76996e-12
6.12418e-12
3.65605e-12
4.69677e-12
2.38029e-12
5.14002e-12
7.23408e-12
5.61126e-12
5.77851e-12
4.569e-12
6.36126e-12
3.76171e-12
3.85388e-12
4.1734e-13
5.1316e-13
1.3845e-13
8.53085e-14
2.43747e-12
2.35363e-12
4.19572e-12
9.2594e-14
1.17754e-12
1.13761e-12
5.34773e-13
1.81564e-12
8.78036e-13
8.91352e-13
1.64358e-12
6.94034e-14
8.96959e-13
2.63961e-12
1.90434e-13
2.50591e-12
3.39876e-12
7.05839e-13
1.90348e-13
1.72358e-12
2.27013e-12
6.76489e-13
1.52714e-12
1.89131e-12
2.2343e-12
3.19173e-13
8.26693e-13
5.95416e-13
2.40417e-12
2.47455e-13
2.29322e-13
8.05512e-13
1.08874e-12
3.83096e-12
1.43585e-12
6.53862e-13
2.39314e-15
2.61901e-13
9.78861e-13
4.72361e-13
8.10952e-13
2.4538e-13
1.96621e-13
1.72347e-12
2.9112e-12
1.31503e-12
1.17747e-12
1.8597e-12
1.10465e-12
2.73819e-12
7.8251e-13
4.46784e-13
7.99253e-14
1.51726e-12
1.06193e-12
7.33502e-13
3.9753e-12
1.99533e-12
4.46215e-12
5.95215e-12
8.07861e-12
1.03244e-11
8.20864e-12
9.5343e-12
9.92205e-12
1.03221e-11
9.85703e-12
1.15921e-11
1.09143e-11
9.69857e-12
1.13807e-11
1.243e-11
1.14596e-11
1.20323e-11
1.06882e-11
1.36047e-11
1.17564e-11
1.31778e-11
1.38099e-11
1.8765e-11
1.59362e-11
)
;

boundaryField
{
    sides
    {
        type            calculated;
        value           nonuniform List<scalar> 2(1.59362e-11 9.89033e-12);
    }
    empty
    {
        type            empty;
    }
}


// ************************************************************************* //
