/*--------------------------------*- C++ -*----------------------------------*\
| =========                 |                                                 |
| \\      /  F ield         | OpenFOAM: The Open Source CFD Toolbox           |
|  \\    /   O peration     | Version:  4.1                                   |
|   \\  /    A nd           | Web:      www.OpenFOAM.org                      |
|    \\/     M anipulation  |                                                 |
\*---------------------------------------------------------------------------*/
FoamFile
{
    version     2.0;
    format      ascii;
    class       surfaceScalarField;
    location    "0.0018";
    object      phi;
}
// * * * * * * * * * * * * * * * * * * * * * * * * * * * * * * * * * * * * * //

dimensions      [1 0 -1 0 0 0 0];

internalField   nonuniform List<scalar> 
999
(
-3.55271e-11
-4.15312e-11
-4.67466e-11
-3.77725e-11
-4.00959e-11
-3.52856e-11
-3.71898e-11
-4.11475e-11
-3.93143e-11
-3.29194e-11
-3.40563e-11
-3.40634e-11
-3.0802e-11
-3.24079e-11
-3.12212e-11
-3.21592e-11
-3.3566e-11
-2.73488e-11
-3.35874e-11
-3.98401e-11
-3.83338e-11
-3.96625e-11
-4.62421e-11
-4.70735e-11
-4.14104e-11
-3.60671e-11
-2.99707e-11
-2.69296e-11
-2.53166e-11
-2.6418e-11
-1.81331e-11
-1.59872e-11
-1.1859e-11
-1.4353e-11
-9.00258e-12
-8.75389e-12
-1.16458e-11
-1.62359e-11
-1.49782e-11
-1.46372e-11
-1.42535e-11
-1.22142e-11
-7.43228e-12
-3.28271e-12
3.41771e-12
6.22435e-12
-6.89226e-13
5.30775e-12
7.54596e-12
6.8141e-12
5.50671e-12
1.02247e-11
8.73257e-12
9.93339e-12
2.96296e-12
-2.73559e-12
-7.7307e-12
-1.18874e-11
-1.6442e-11
-1.53335e-11
-1.3884e-11
-2.12736e-11
-1.94476e-11
-1.38627e-11
-7.53175e-12
-1.07434e-11
-1.67688e-11
-1.18234e-11
-2.13873e-12
4.89564e-12
3.51008e-12
-1.56319e-13
7.41807e-12
7.12674e-12
2.65032e-12
-6.18172e-13
2.05347e-12
5.28644e-12
1.1191e-11
1.64633e-11
1.8197e-11
1.75717e-11
2.3185e-11
2.49898e-11
2.62901e-11
2.81801e-11
2.63611e-11
2.33626e-11
2.82654e-11
2.86633e-11
3.05391e-11
2.93809e-11
2.16573e-11
2.23679e-11
2.38813e-11
2.39524e-11
2.37534e-11
1.76854e-11
1.72378e-11
2.5139e-11
2.332e-11
2.32063e-11
2.13802e-11
1.96465e-11
1.96962e-11
1.56462e-11
2.15437e-11
2.143e-11
2.48477e-11
1.7117e-11
9.62785e-12
7.2049e-12
8.07177e-12
6.14619e-12
8.2423e-12
1.24061e-11
4.21352e-12
2.06768e-12
2.92033e-12
1.52056e-12
3.30402e-12
1.06652e-11
1.62004e-11
1.65414e-11
1.54117e-11
1.73515e-11
1.40759e-11
7.61702e-12
7.60991e-12
8.48388e-12
1.06937e-11
8.36309e-12
4.43379e-12
4.54037e-12
1.07292e-11
1.25269e-11
7.33991e-12
1.17737e-11
1.08571e-11
2.72848e-12
4.92406e-12
6.19593e-12
7.66676e-12
1.05445e-11
1.01394e-11
3.75167e-12
6.82832e-12
6.04672e-12
-2.84217e-13
7.26885e-12
9.02389e-12
9.79838e-12
5.45697e-12
3.33955e-12
-4.67537e-12
-1.19442e-11
-1.84173e-11
-1.9206e-11
-2.54019e-11
-2.5949e-11
-2.51745e-11
-2.33129e-11
-1.91065e-11
-1.8396e-11
-1.05089e-11
-9.47864e-12
-8.87468e-12
-1.34293e-12
6.40199e-12
6.87805e-12
1.30029e-11
1.85452e-11
1.63567e-11
1.75717e-11
1.23705e-11
6.08935e-12
4.67537e-12
-2.03215e-12
-7.03437e-13
3.83693e-12
-7.95808e-13
-3.58114e-12
-3.73745e-12
-4.8459e-12
2.28084e-12
4.69669e-12
4.27036e-12
4.93117e-12
4.50484e-12
1.50635e-12
-1.06581e-13
7.38964e-12
1.16813e-11
1.20366e-11
1.56248e-11
2.01368e-11
1.95826e-11
1.17026e-11
3.65219e-12
8.10729e-12
6.34515e-12
3.41771e-12
1.12834e-11
1.27187e-11
1.27685e-11
9.62075e-12
9.84102e-12
8.896e-12
1.68967e-11
2.26805e-11
1.95257e-11
2.2176e-11
2.07763e-11
1.58877e-11
1.78915e-11
1.7117e-11
1.44524e-11
1.21716e-11
5.54934e-12
3.12639e-12
5.17275e-12
7.89413e-12
3.60245e-12
7.80176e-12
6.11067e-12
1.28253e-11
9.13047e-12
1.58522e-11
1.4893e-11
1.08358e-11
1.15037e-11
1.74865e-11
1.19229e-11
8.7752e-12
9.30811e-13
1.61293e-12
-5.27933e-12
-1.48361e-11
-8.39151e-12
-1.3209e-11
-1.247e-11
-1.03952e-11
-3.29692e-12
-2.7498e-12
-6.72884e-12
-1.61293e-12
-1.21503e-12
-1.44951e-12
3.85114e-12
7.14806e-12
2.04636e-12
4.08562e-12
8.22808e-12
8.46256e-12
1.11555e-12
-6.942e-12
-8.31335e-12
-7.91545e-12
-6.87805e-12
-7.17648e-12
-1.13687e-12
4.25615e-12
-2.42295e-12
-2.45137e-12
-2.089e-12
-5.19407e-12
-7.96518e-12
-2.19558e-12
-2.28795e-12
-2.57927e-12
-2.55085e-12
1.06581e-13
3.11928e-12
-9.9476e-13
5.69145e-12
2.4869e-13
2.28795e-12
4.29168e-12
-1.84741e-13
2.41585e-12
3.62377e-12
2.03926e-12
4.11404e-12
1.03668e-11
1.28395e-11
1.9071e-11
2.32419e-11
2.35687e-11
2.63114e-11
2.18066e-11
1.59162e-11
1.25553e-11
1.28608e-11
7.8586e-12
9.23706e-12
8.44125e-12
8.56204e-12
9.96181e-12
1.35145e-11
2.12239e-11
1.2399e-11
8.22808e-12
9.57812e-12
4.49063e-12
2.25242e-12
1.22213e-12
7.74492e-12
7.37543e-12
2.13163e-14
-8.21387e-12
-1.13687e-12
6.96332e-12
7.60991e-12
3.61666e-12
1.98241e-12
5.16565e-12
2.39453e-12
2.13163e-13
7.10543e-14
1.44951e-12
1.62714e-12
-1.62714e-12
-1.44951e-12
-1.23634e-12
-1.20792e-12
2.05347e-12
5.24381e-12
4.88853e-12
3.4035e-12
1.64846e-12
3.46034e-12
3.59535e-12
1.87583e-12
3.55271e-14
-2.64322e-12
-4.03588e-12
-6.27409e-12
-4.3201e-12
-3.77298e-12
-1.60583e-12
-2.84217e-14
-4.9738e-13
-5.96856e-13
-2.54374e-12
-3.19744e-12
-3.56692e-12
-3.56692e-12
-2.81375e-12
1.98241e-12
-5.25802e-13
1.37135e-12
7.95097e-12
4.52616e-12
-2.25242e-12
-2.06057e-12
9.73444e-13
2.07478e-12
1.46372e-12
2.85638e-12
5.11591e-12
3.9293e-12
4.29168e-12
2.03926e-12
-1.30029e-12
-2.18847e-12
-4.9809e-12
-5.98277e-12
-1.64846e-12
3.63087e-12
4.54747e-12
4.9738e-12
7.9865e-12
8.73968e-12
8.05045e-12
3.52429e-12
-1.5703e-12
1.1795e-12
-3.55982e-12
-4.09983e-12
-2.05347e-12
-2.3519e-12
-6.69331e-12
-6.53699e-13
3.55982e-12
-1.82609e-12
5.64171e-12
4.86722e-12
7.1978e-12
2.20055e-11
6.48228e-11
1.89779e-10
5.50166e-10
1.55489e-09
4.2896e-09
1.16176e-08
3.09786e-08
8.14011e-08
2.1083e-07
5.38167e-07
1.35359e-06
3.35363e-06
8.18198e-06
1.96501e-05
4.64376e-05
0.000107945
0.000246701
0.000554092
0.00122242
0.00264761
0.00562647
0.0117245
0.0239407
0.047867
0.0936344
0.179035
0.33427
0.608724
1.07981
1.86316
3.12194
5.07063
7.96553
12.0686
17.5502
24.2995
32.1052
40.8336
50.3404
60.4632
71.0428
81.9366
93.0242
104.209
115.414
126.58
137.664
148.629
159.45
170.105
180.578
190.856
200.93
210.791
220.434
229.854
239.046
248.007
256.737
265.232
273.491
281.514
289.3
296.848
304.158
311.23
318.063
324.657
331.012
337.128
343.003
348.638
354.031
359.183
364.086
368.756
373.15
377.35
381.211
384.93
388.295
391.408
394.401
396.867
399.355
401.429
403.133
404.868
406.145
407.103
408.109
408.756
409.103
409.461
409.711
409.781
409.74
409.738
409.754
409.755
409.721
409.673
409.628
409.566
409.491
409.438
409.404
409.375
409.346
409.336
409.328
409.315
409.284
409.259
409.24
409.217
409.183
409.156
409.138
409.116
409.09
409.067
409.032
408.986
408.948
408.921
408.89
408.834
408.751
408.681
408.635
408.589
408.566
408.482
408.254
408.079
408.006
407.986
408.098
408.523
408.807
408.877
407.894
400.009
371.458
342.152
318.755
301.449
289.679
282.549
278.148
275.404
273.776
273.265
273.435
273.408
272.898
272.826
273.262
273.51
273.247
272.86
273.011
273.492
273.526
272.969
272.865
273.261
273.491
273.22
272.87
272.895
273.336
273.408
272.852
272.749
272.95
273.286
273.038
272.606
272.605
272.997
273.118
272.423
272.351
272.443
272.803
272.465
271.874
271.855
272.031
272.288
271.083
270.855
270.969
271.508
270.936
269.235
269.097
269.455
270.38
267.033
265.459
264.548
263.776
260.63
246.441
203.983
65.6039
19.056
4.76539
1.13746
0.268311
0.0631266
0.0148463
0.00349134
0.000820918
0.000192988
4.53613e-05
1.06603e-05
2.50486e-06
5.88482e-07
1.38236e-07
3.24686e-08
7.62609e-09
1.7905e-09
4.19689e-10
9.76463e-11
2.22986e-11
5.56e-12
1.00542e-12
1.78524e-12
1.70708e-12
-6.75016e-14
5.64881e-13
2.43716e-12
2.11919e-12
4.03233e-13
-1.1493e-12
-1.0143e-12
-3.64153e-13
-7.63833e-14
-2.36255e-13
-3.89022e-13
-6.18172e-13
-6.98108e-13
-2.66454e-13
-1.24345e-13
-1.06581e-12
-3.09086e-12
-2.0286e-12
-2.75335e-13
-2.4869e-13
-7.17648e-13
-1.04272e-12
-1.53122e-12
-8.36664e-13
4.68958e-13
1.72129e-12
1.06049e-12
2.24709e-12
2.4194e-12
1.02141e-12
4.88498e-13
-1.80833e-12
-3.47455e-12
-1.55076e-12
-1.66978e-13
1.52767e-13
-2.77112e-13
-4.24549e-13
-6.44818e-13
-5.32907e-13
-3.73035e-13
-1.88294e-13
1.48148e-12
1.803e-12
6.0929e-13
6.85674e-13
4.33431e-13
-4.51195e-13
1.06581e-14
7.14095e-13
8.54428e-13
1.10134e-12
1.38733e-12
9.14824e-13
7.49623e-13
3.48166e-13
-4.83169e-13
-1.25588e-12
-1.36779e-13
-3.55271e-14
-7.63833e-13
-2.6823e-13
-1.58451e-12
-2.11031e-12
-2.74625e-12
-1.91847e-12
-1.82254e-12
1.26121e-13
8.66862e-13
-9.04166e-13
-1.87761e-12
-1.84741e-12
9.76996e-14
1.84563e-12
2.32525e-12
2.41052e-12
3.25784e-12
2.22222e-12
2.38565e-12
8.52651e-13
9.02389e-13
1.08002e-12
8.18901e-13
5.93303e-13
1.16707e-12
2.27907e-12
1.82077e-12
-2.91323e-13
4.29878e-13
7.95808e-13
1.64668e-12
1.74794e-12
1.55254e-12
1.71951e-12
1.94156e-12
1.43885e-13
-3.6593e-13
-1.20259e-12
-1.23812e-12
-3.32534e-12
-4.41958e-12
-4.70735e-12
-3.31291e-12
-2.63078e-12
-3.52252e-12
-3.68239e-12
-2.69296e-12
-1.54365e-12
4.44089e-14
1.04272e-12
2.40696e-12
1.16529e-12
8.95284e-13
-7.53175e-13
-1.5028e-12
4.61853e-14
1.42641e-12
2.68052e-12
3.29159e-12
3.2756e-12
2.41762e-12
2.02327e-12
3.0731e-13
-2.13163e-14
-4.60076e-13
1.24345e-12
8.56204e-13
-2.62901e-13
-1.24523e-12
-1.10134e-13
-7.21201e-13
-1.11022e-12
-1.38378e-12
-6.98108e-13
-8.59757e-13
-1.09956e-12
-7.56728e-13
-2.41585e-13
-5.41789e-13
-6.27054e-13
-8.15348e-13
-1.82965e-12
-2.59526e-12
-2.53308e-12
-2.61124e-12
-2.60414e-12
-2.04103e-12
-2.53664e-12
-7.40741e-13
9.46798e-13
1.21503e-12
-4.56524e-13
-2.57572e-12
-2.77822e-12
-2.49756e-12
-4.07141e-12
-2.12452e-12
-1.66089e-12
-7.63833e-14
1.00364e-12
2.34657e-12
2.23999e-12
9.66338e-13
1.09068e-12
-5.50671e-14
-1.34825e-12
-1.64491e-12
-1.38378e-12
-8.88178e-13
1.35003e-13
-1.20437e-12
-5.96856e-13
-7.21201e-13
-4.93827e-13
-5.68434e-13
1.35181e-12
2.9079e-12
2.60236e-12
4.02345e-12
5.81757e-12
4.87965e-12
3.72324e-12
3.94884e-12
2.82796e-12
2.61835e-12
2.11209e-12
1.02851e-12
-2.18492e-13
2.80664e-13
-1.63247e-12
-1.48681e-12
8.52651e-14
1.65556e-12
1.6076e-12
-3.606e-13
-8.34888e-14
6.80345e-13
1.34825e-12
7.2653e-13
7.8515e-13
5.31131e-13
-8.17124e-13
-2.33769e-12
-4.13891e-12
-2.73026e-12
-2.99849e-12
-3.48521e-12
-1.91669e-12
-2.68585e-12
-3.4639e-12
-2.77645e-12
-3.97371e-12
-1.90248e-12
-3.10862e-13
-6.11067e-13
-7.99361e-13
-2.02505e-13
-1.5401e-12
-1.61826e-12
-9.05942e-13
-1.00897e-12
-4.60076e-13
-1.20082e-12
-1.28608e-12
6.60805e-13
1.37135e-12
2.67519e-12
2.96296e-12
3.17613e-12
2.51177e-12
1.84208e-12
7.81597e-13
1.07114e-12
1.07114e-12
-7.81597e-13
-1.65379e-12
-1.54365e-12
-8.68638e-13
-1.98241e-12
-2.72138e-12
-3.03224e-12
-2.79599e-12
-3.74456e-12
-5.48006e-12
-5.76073e-12
-6.08402e-12
-5.54401e-12
-3.56515e-12
-4.47642e-12
-4.11937e-12
-4.45688e-12
-4.4853e-12
-3.47988e-12
-1.78701e-12
3.19744e-13
1.6307e-12
6.71463e-13
-9.76996e-14
-6.66134e-13
-5.31131e-13
-2.39808e-13
-1.0445e-12
-8.2423e-13
-5.86198e-13
-9.05942e-14
-3.55271e-13
3.90799e-14
1.84386e-12
3.84937e-12
4.00036e-12
2.56684e-12
2.20446e-12
1.5028e-12
1.28253e-12
2.75691e-12
1.71418e-12
1.49392e-12
2.44604e-12
4.80505e-12
3.66285e-12
3.7037e-12
4.3805e-12
3.56515e-12
3.18678e-12
3.27915e-12
5.11768e-12
5.75362e-12
4.98268e-12
4.41602e-12
4.56701e-12
4.6807e-12
3.28804e-12
1.25944e-12
-2.64677e-13
-3.6593e-13
1.65201e-13
7.28306e-13
2.38209e-12
2.72848e-12
1.94156e-12
3.71259e-13
6.39488e-14
-3.76588e-13
1.20259e-12
9.76996e-13
1.00719e-12
8.73968e-13
8.93507e-13
3.74811e-13
1.46549e-12
1.23457e-12
8.72191e-13
2.54907e-12
2.07123e-12
1.36779e-13
8.75744e-13
1.51879e-12
8.43769e-13
-1.11022e-12
-1.39622e-12
-1.79234e-12
-7.6561e-13
-2.77112e-13
-7.10543e-14
-7.86926e-13
-9.91207e-13
3.55271e-15
2.34479e-13
9.11271e-13
2.07478e-12
2.15294e-12
4.74287e-13
-4.12115e-13
2.00728e-13
-4.24549e-13
-5.06262e-13
-6.80345e-13
-2.13163e-13
3.37508e-14
5.77316e-13
2.30571e-12
1.58806e-12
9.23706e-14
-1.25944e-12
-1.38023e-12
-1.57563e-12
-1.49569e-12
-6.14619e-13
-1.06581e-13
5.52447e-13
1.33937e-12
1.27898e-13
1.2399e-12
2.83684e-12
2.60947e-12
4.4178e-12
6.29363e-12
7.98117e-12
8.2121e-12
7.57971e-12
8.18012e-12
9.25482e-12
8.26361e-12
9.71312e-12
9.6243e-12
9.09139e-12
8.83915e-12
1.07878e-11
1.02265e-11
1.0056e-11
9.8499e-12
1.05e-11
1.12728e-11
1.04947e-11
1.18341e-11
1.40457e-11
1.52927e-11
)
;

boundaryField
{
    sides
    {
        type            calculated;
        value           nonuniform List<scalar> 2(1.3848e-11 3.43134e-11);
    }
    empty
    {
        type            empty;
        value           nonuniform 0();
    }
}


// ************************************************************************* //
