/*--------------------------------*- C++ -*----------------------------------*\
| =========                 |                                                 |
| \\      /  F ield         | OpenFOAM: The Open Source CFD Toolbox           |
|  \\    /   O peration     | Version:  4.1                                   |
|   \\  /    A nd           | Web:      www.OpenFOAM.org                      |
|    \\/     M anipulation  |                                                 |
\*---------------------------------------------------------------------------*/
FoamFile
{
    version     2.0;
    format      ascii;
    class       volVectorField;
    location    "0.0018";
    object      U;
}
// * * * * * * * * * * * * * * * * * * * * * * * * * * * * * * * * * * * * * //

dimensions      [0 1 -1 0 0 0 0];

internalField   nonuniform List<vector> 
1000
(
(-9.89033e-12 0 0)
(-1.05257e-11 0 0)
(-1.40067e-11 0 0)
(-1.1646e-11 0 0)
(-1.11651e-11 0 0)
(-1.12366e-11 0 0)
(-9.61412e-12 0 0)
(-1.1896e-11 0 0)
(-1.11283e-11 0 0)
(-1.1375e-11 0 0)
(-8.35191e-12 0 0)
(-1.07629e-11 0 0)
(-8.75517e-12 0 0)
(-9.28981e-12 0 0)
(-8.34685e-12 0 0)
(-1.00326e-11 0 0)
(-9.0583e-12 0 0)
(-9.56456e-12 0 0)
(-7.21558e-12 0 0)
(-1.14008e-11 0 0)
(-1.05736e-11 0 0)
(-1.13496e-11 0 0)
(-1.22184e-11 0 0)
(-1.46105e-11 0 0)
(-1.19096e-11 0 0)
(-1.26035e-11 0 0)
(-7.63898e-12 0 0)
(-9.28359e-12 0 0)
(-6.46399e-12 0 0)
(-8.40909e-12 0 0)
(-6.39697e-12 0 0)
(-4.6133e-12 0 0)
(-4.08888e-12 0 0)
(-3.17766e-12 0 0)
(-4.61245e-12 0 0)
(-8.63559e-13 0 0)
(-3.98002e-12 0 0)
(-3.09212e-12 0 0)
(-5.59355e-12 0 0)
(-3.50531e-12 0 0)
(-4.72803e-12 0 0)
(-3.97532e-12 0 0)
(-2.53831e-12 0 0)
(-1.74557e-12 0 0)
(-5.90241e-13 0 0)
(3.11733e-12 0 0)
(-3.04907e-13 0 0)
(1.8312e-13 0 0)
(1.97958e-12 0 0)
(3.52549e-12 0 0)
(-4.78953e-13 0 0)
(4.07142e-12 0 0)
(1.20492e-12 0 0)
(4.23279e-12 0 0)
(1.66305e-12 0 0)
(2.18883e-13 0 0)
(-1.94216e-12 0 0)
(-2.44658e-12 0 0)
(-4.36914e-12 0 0)
(-5.19908e-12 0 0)
(-3.16426e-12 0 0)
(-5.5946e-12 0 0)
(-5.7143e-12 0 0)
(-5.98713e-12 0 0)
(-1.52809e-12 0 0)
(-3.24862e-12 0 0)
(-3.08986e-12 0 0)
(-6.26219e-12 0 0)
(3.02201e-14 0 0)
(-1.27259e-12 0 0)
(3.66404e-12 0 0)
(-1.6199e-12 0 0)
(1.60533e-12 0 0)
(2.14112e-12 0 0)
(2.3191e-12 0 0)
(-4.55204e-13 0 0)
(-1.53359e-13 0 0)
(1.49414e-12 0 0)
(1.93437e-12 0 0)
(4.11185e-12 0 0)
(5.43652e-12 0 0)
(4.48069e-12 0 0)
(6.26418e-12 0 0)
(7.2537e-12 0 0)
(6.65767e-12 0 0)
(8.80724e-12 0 0)
(7.08265e-12 0 0)
(7.70301e-12 0 0)
(6.38111e-12 0 0)
(9.96945e-12 0 0)
(6.60129e-12 0 0)
(1.02504e-11 0 0)
(6.49491e-12 0 0)
(6.76556e-12 0 0)
(5.97007e-12 0 0)
(7.11346e-12 0 0)
(6.978e-12 0 0)
(6.03046e-12 0 0)
(4.44125e-12 0 0)
(6.06224e-12 0 0)
(7.75127e-12 0 0)
(6.18992e-12 0 0)
(6.86178e-12 0 0)
(5.3863e-12 0 0)
(6.24738e-12 0 0)
(4.63774e-12 0 0)
(4.92527e-12 0 0)
(6.53927e-12 0 0)
(6.7758e-12 0 0)
(6.43685e-12 0 0)
(3.86639e-12 0 0)
(2.12974e-12 0 0)
(2.09396e-12 0 0)
(2.64029e-12 0 0)
(4.7965e-13 0 0)
(4.40184e-12 0 0)
(2.24634e-12 0 0)
(7.4e-13 0 0)
(9.59401e-14 0 0)
(1.82627e-12 0 0)
(-9.61023e-13 0 0)
(2.61258e-12 0 0)
(4.06121e-12 0 0)
(4.4269e-12 0 0)
(5.61197e-12 0 0)
(3.89199e-12 0 0)
(5.44254e-12 0 0)
(2.74572e-12 0 0)
(1.65193e-12 0 0)
(3.11587e-12 0 0)
(1.76276e-12 0 0)
(3.98371e-12 0 0)
(1.08339e-12 0 0)
(1.23446e-12 0 0)
(1.6491e-12 0 0)
(4.55457e-12 0 0)
(2.25739e-12 0 0)
(2.17556e-12 0 0)
(4.70358e-12 0 0)
(9.25147e-13 0 0)
(9.41814e-13 0 0)
(1.6422e-12 0 0)
(2.02593e-12 0 0)
(2.18089e-12 0 0)
(3.74363e-12 0 0)
(1.7902e-12 0 0)
(7.47008e-13 0 0)
(2.77882e-12 0 0)
(3.33797e-13 0 0)
(-3.8448e-13 0 0)
(3.93174e-12 0 0)
(1.75063e-12 0 0)
(3.62255e-12 0 0)
(-3.05363e-13 0 0)
(1.9618e-12 0 0)
(-4.16527e-12 0 0)
(-3.71624e-12 0 0)
(-5.66682e-12 0 0)
(-6.18925e-12 0 0)
(-8.042e-12 0 0)
(-6.96328e-12 0 0)
(-7.40547e-12 0 0)
(-5.7703e-12 0 0)
(-6.01369e-12 0 0)
(-3.86129e-12 0 0)
(-2.44743e-12 0 0)
(-3.25971e-12 0 0)
(-1.46537e-12 0 0)
(5.81043e-13 0 0)
(2.75304e-12 0 0)
(1.70293e-12 0 0)
(5.13772e-12 0 0)
(5.5199e-12 0 0)
(4.76768e-12 0 0)
(4.82388e-12 0 0)
(2.02844e-12 0 0)
(1.56979e-12 0 0)
(1.44397e-12 0 0)
(-2.91142e-12 0 0)
(2.64175e-12 0 0)
(-5.68146e-13 0 0)
(-2.24391e-14 0 0)
(-1.53845e-12 0 0)
(-1.16397e-12 0 0)
(-1.07835e-12 0 0)
(2.00681e-12 0 0)
(1.13648e-12 0 0)
(1.56955e-12 0 0)
(1.12652e-12 0 0)
(1.28252e-12 0 0)
(-3.92421e-13 0 0)
(3.62523e-13 0 0)
(3.83699e-12 0 0)
(2.51654e-12 0 0)
(4.84425e-12 0 0)
(4.44842e-12 0 0)
(6.59178e-12 0 0)
(4.26956e-12 0 0)
(2.84247e-12 0 0)
(-7.08546e-13 0 0)
(4.87651e-12 0 0)
(-7.18565e-13 0 0)
(3.04693e-12 0 0)
(2.70103e-12 0 0)
(4.28075e-12 0 0)
(3.33356e-12 0 0)
(2.59293e-12 0 0)
(2.69942e-12 0 0)
(2.73853e-12 0 0)
(6.57568e-12 0 0)
(6.37798e-12 0 0)
(5.75147e-12 0 0)
(6.06022e-12 0 0)
(6.38186e-12 0 0)
(3.00509e-12 0 0)
(6.83294e-12 0 0)
(3.48579e-12 0 0)
(4.86235e-12 0 0)
(1.58448e-12 0 0)
(2.21963e-12 0 0)
(-8.77864e-13 0 0)
(4.38502e-12 0 0)
(-4.62869e-13 0 0)
(2.96645e-12 0 0)
(7.12784e-13 0 0)
(3.62765e-12 0 0)
(2.67748e-12 0 0)
(3.31982e-12 0 0)
(5.06422e-12 0 0)
(3.76282e-12 0 0)
(2.65794e-12 0 0)
(4.59528e-12 0 0)
(4.39362e-12 0 0)
(2.96313e-12 0 0)
(1.87645e-12 0 0)
(-1.23197e-12 0 0)
(2.12443e-12 0 0)
(-5.53061e-12 0 0)
(-2.36834e-12 0 0)
(-2.80971e-12 0 0)
(-4.20676e-12 0 0)
(-3.63401e-12 0 0)
(-1.79196e-12 0 0)
(-1.48611e-13 0 0)
(-1.77192e-12 0 0)
(-1.62392e-12 0 0)
(6.21736e-13 0 0)
(-1.22516e-12 0 0)
(2.00163e-13 0 0)
(2.11096e-12 0 0)
(2.29528e-12 0 0)
(-1.0443e-12 0 0)
(2.95363e-12 0 0)
(2.57912e-12 0 0)
(1.6799e-12 0 0)
(-1.04532e-12 0 0)
(-2.64408e-12 0 0)
(-2.39438e-12 0 0)
(-2.03013e-12 0 0)
(-2.13784e-12 0 0)
(-2.09688e-12 0 0)
(1.61845e-12 0 0)
(3.79643e-13 0 0)
(-1.34859e-12 0 0)
(-5.47516e-13 0 0)
(-2.91382e-13 0 0)
(-2.98715e-12 0 0)
(-1.39055e-12 0 0)
(2.48237e-13 0 0)
(-1.70466e-12 0 0)
(1.69194e-13 0 0)
(-2.02984e-12 0 0)
(2.28557e-12 0 0)
(-1.03273e-12 0 0)
(7.13523e-13 0 0)
(2.03827e-12 0 0)
(-1.8409e-12 0 0)
(3.1194e-12 0 0)
(-4.49438e-13 0 0)
(3.14438e-13 0 0)
(1.17978e-12 0 0)
(7.05535e-13 0 0)
(6.26027e-13 0 0)
(2.05667e-12 0 0)
(3.01144e-12 0 0)
(5.16708e-12 0 0)
(5.7805e-12 0 0)
(7.18317e-12 0 0)
(6.9477e-12 0 0)
(7.42861e-12 0 0)
(5.50622e-12 0 0)
(3.15004e-12 0 0)
(3.91688e-12 0 0)
(3.64059e-12 0 0)
(1.33343e-12 0 0)
(3.42201e-12 0 0)
(1.72116e-12 0 0)
(2.96476e-12 0 0)
(3.18707e-12 0 0)
(5.12423e-12 0 0)
(5.93946e-12 0 0)
(1.66706e-12 0 0)
(3.85789e-12 0 0)
(6.56673e-13 0 0)
(2.54168e-12 0 0)
(-1.53181e-12 0 0)
(2.19858e-12 0 0)
(2.34616e-12 0 0)
(1.72811e-12 0 0)
(-1.7046e-12 0 0)
(-2.81196e-12 0 0)
(2.12092e-12 0 0)
(1.7105e-12 0 0)
(2.49509e-12 0 0)
(-8.44559e-14 0 0)
(1.11642e-12 0 0)
(1.52728e-12 0 0)
(4.69113e-14 0 0)
(5.02631e-14 0 0)
(2.7985e-16 0 0)
(8.78547e-13 0 0)
(3.57925e-21 0 0)
(-8.78546e-13 0 0)
(-2.59519e-16 0 0)
(-7.23505e-13 0 0)
(7.03365e-14 0 0)
(1.22757e-12 0 0)
(1.4889e-12 0 0)
(1.25909e-12 0 0)
(9.00771e-13 0 0)
(5.70781e-14 0 0)
(1.81065e-12 0 0)
(7.14733e-14 0 0)
(1.07332e-12 0 0)
(-1.0093e-12 0 0)
(-7.84268e-13 0 0)
(-1.37719e-12 0 0)
(-2.07426e-12 0 0)
(-5.27481e-13 0 0)
(-1.48435e-12 0 0)
(3.66023e-13 0 0)
(-3.44891e-13 0 0)
(1.44572e-16 0 0)
(-3.92145e-13 0 0)
(-9.74261e-13 0 0)
(-8.17645e-13 0 0)
(-1.20713e-12 0 0)
(-8.00359e-13 0 0)
(-7.16698e-13 0 0)
(1.70564e-12 0 0)
(-1.84309e-12 0 0)
(2.3125e-12 0 0)
(2.56756e-12 0 0)
(3.17161e-13 0 0)
(-1.86149e-12 0 0)
(6.56469e-13 0 0)
(4.59577e-14 0 0)
(9.43332e-13 0 0)
(7.58652e-14 0 0)
(1.33787e-12 0 0)
(1.79176e-12 0 0)
(4.76163e-13 0 0)
(2.04383e-12 0 0)
(-1.16476e-12 0 0)
(6.34281e-13 0 0)
(-1.66405e-12 0 0)
(-1.74561e-12 0 0)
(-1.27776e-12 0 0)
(2.12754e-13 0 0)
(2.18391e-12 0 0)
(3.28164e-13 0 0)
(2.12989e-12 0 0)
(2.97461e-12 0 0)
(1.62594e-12 0 0)
(3.3775e-12 0 0)
(-1.39301e-12 0 0)
(2.44217e-13 0 0)
(6.44916e-13 0 0)
(-2.43674e-12 0 0)
(-4.77406e-13 0 0)
(-3.83007e-13 0 0)
(-8.4598e-13 0 0)
(-3.43602e-12 0 0)
(3.12946e-12 0 0)
(-9.71058e-13 0 0)
(-9.7089e-14 0 0)
(2.85525e-12 0 0)
(5.57387e-13 0 0)
(3.83475e-12 0 0)
(1.01521e-11 0 0)
(3.03781e-11 0 0)
(8.8904e-11 0 0)
(2.55325e-10 0 0)
(7.14697e-10 0 0)
(1.95612e-09 0 0)
(5.26452e-09 0 0)
(1.39546e-08 0 0)
(3.64563e-08 0 0)
(9.38724e-08 0 0)
(2.38201e-07 0 0)
(5.95483e-07 0 0)
(1.46616e-06 0 0)
(3.55414e-06 0 0)
(8.47947e-06 0 0)
(1.99028e-05 0 0)
(4.594e-05 0 0)
(0.000104234 0 0)
(0.000232357 0 0)
(0.000508645 0 0)
(0.00109281 0 0)
(0.00230294 0 0)
(0.00475716 0 0)
(0.00962564 0 0)
(0.0190628 0 0)
(0.0369184 0 0)
(0.0698513 0 0)
(0.128978 0 0)
(0.232134 0 0)
(0.406683 0 0)
(0.69248 0 0)
(1.14403 0 0)
(1.83006 0 0)
(2.82711 0 0)
(4.19944 0 0)
(5.96405 0 0)
(8.09079 0 0)
(10.5429 0 0)
(13.289 0 0)
(16.2938 0 0)
(19.5182 0 0)
(22.9243 0 0)
(26.4784 0 0)
(30.152 0 0)
(33.9217 0 0)
(37.7692 0 0)
(41.6798 0 0)
(45.6419 0 0)
(49.6464 0 0)
(53.6858 0 0)
(57.7538 0 0)
(61.8454 0 0)
(65.9561 0 0)
(70.0821 0 0)
(74.2199 0 0)
(78.3664 0 0)
(82.5187 0 0)
(86.674 0 0)
(90.8299 0 0)
(94.9835 0 0)
(99.1324 0 0)
(103.274 0 0)
(107.405 0 0)
(111.524 0 0)
(115.626 0 0)
(119.709 0 0)
(123.769 0 0)
(127.803 0 0)
(131.807 0 0)
(135.775 0 0)
(139.704 0 0)
(143.587 0 0)
(147.418 0 0)
(151.192 0 0)
(154.899 0 0)
(158.534 0 0)
(162.084 0 0)
(165.545 0 0)
(168.898 0 0)
(172.141 0 0)
(175.25 0 0)
(178.22 0 0)
(181.035 0 0)
(183.677 0 0)
(186.139 0 0)
(188.395 0 0)
(190.438 0 0)
(192.259 0 0)
(193.844 0 0)
(195.19 0 0)
(196.3 0 0)
(197.185 0 0)
(197.852 0 0)
(198.324 0 0)
(198.636 0 0)
(198.827 0 0)
(198.91 0 0)
(198.928 0 0)
(198.933 0 0)
(198.936 0 0)
(198.929 0 0)
(198.908 0 0)
(198.864 0 0)
(198.8 0 0)
(198.732 0 0)
(198.676 0 0)
(198.635 0 0)
(198.608 0 0)
(198.594 0 0)
(198.589 0 0)
(198.587 0 0)
(198.585 0 0)
(198.584 0 0)
(198.581 0 0)
(198.578 0 0)
(198.576 0 0)
(198.574 0 0)
(198.572 0 0)
(198.57 0 0)
(198.569 0 0)
(198.568 0 0)
(198.566 0 0)
(198.565 0 0)
(198.564 0 0)
(198.562 0 0)
(198.561 0 0)
(198.559 0 0)
(198.558 0 0)
(198.556 0 0)
(198.554 0 0)
(198.553 0 0)
(198.551 0 0)
(198.549 0 0)
(198.55 0 0)
(198.55 0 0)
(198.547 0 0)
(198.544 0 0)
(198.541 0 0)
(198.537 0 0)
(198.538 0 0)
(198.556 0 0)
(198.6 0 0)
(198.703 0 0)
(198.933 0 0)
(199.029 0 0)
(198.843 0 0)
(198.636 0 0)
(198.503 0 0)
(198.438 0 0)
(198.438 0 0)
(198.479 0 0)
(198.5 0 0)
(198.48 0 0)
(198.463 0 0)
(198.491 0 0)
(198.524 0 0)
(198.504 0 0)
(198.457 0 0)
(198.452 0 0)
(198.486 0 0)
(198.493 0 0)
(198.447 0 0)
(198.413 0 0)
(198.439 0 0)
(198.469 0 0)
(198.441 0 0)
(198.385 0 0)
(198.374 0 0)
(198.401 0 0)
(198.401 0 0)
(198.348 0 0)
(198.3 0 0)
(198.302 0 0)
(198.316 0 0)
(198.279 0 0)
(198.21 0 0)
(198.171 0 0)
(198.173 0 0)
(198.154 0 0)
(198.077 0 0)
(197.999 0 0)
(197.967 0 0)
(197.95 0 0)
(197.876 0 0)
(197.765 0 0)
(197.682 0 0)
(197.633 0 0)
(197.562 0 0)
(197.419 0 0)
(197.263 0 0)
(197.149 0 0)
(197.047 0 0)
(196.873 0 0)
(196.62 0 0)
(196.4 0 0)
(196.243 0 0)
(196.044 0 0)
(195.666 0 0)
(195.249 0 0)
(194.934 0 0)
(194.628 0 0)
(194.12 0 0)
(193.383 0 0)
(192.429 0 0)
(190.941 0 0)
(188.315 0 0)
(182.184 0 0)
(162.542 0 0)
(105.645 0 0)
(37.4753 0 0)
(9.90696 0 0)
(2.42257 0 0)
(0.575426 0 0)
(0.135594 0 0)
(0.031899 0 0)
(0.00750226 0 0)
(0.00176411 0 0)
(0.00041475 0 0)
(9.74914e-05 0 0)
(2.29126e-05 0 0)
(5.38409e-06 0 0)
(1.26498e-06 0 0)
(2.97161e-07 0 0)
(6.97973e-08 0 0)
(1.63952e-08 0 0)
(3.84956e-09 0 0)
(9.03549e-10 0 0)
(2.11066e-10 0 0)
(4.80199e-11 0 0)
(1.15572e-11 0 0)
(2.51397e-12 0 0)
(3.47715e-13 0 0)
(3.48108e-12 0 0)
(5.98654e-13 0 0)
(-7.38929e-13 0 0)
(1.98148e-12 0 0)
(3.25393e-12 0 0)
(2.02937e-12 0 0)
(-1.18907e-12 0 0)
(-1.37541e-12 0 0)
(-1.01998e-12 0 0)
(-4.45018e-14 0 0)
(-5.85028e-14 0 0)
(-3.34095e-13 0 0)
(-8.27826e-13 0 0)
(-4.50964e-13 0 0)
(-1.06339e-12 0 0)
(3.82732e-13 0 0)
(-6.41667e-13 0 0)
(-2.06237e-12 0 0)
(-4.34518e-12 0 0)
(-9.10972e-13 0 0)
(4.81558e-13 0 0)
(-1.25728e-12 0 0)
(-5.29989e-14 0 0)
(-2.53976e-12 0 0)
(-1.41181e-12 0 0)
(-2.71934e-13 0 0)
(1.5121e-12 0 0)
(1.90853e-12 0 0)
(9.88818e-13 0 0)
(3.82919e-12 0 0)
(1.48767e-12 0 0)
(1.10167e-12 0 0)
(-8.78457e-14 0 0)
(-3.92968e-12 0 0)
(-3.47367e-12 0 0)
(-7.4585e-13 0 0)
(6.50843e-13 0 0)
(-5.75855e-13 0 0)
(2.53234e-13 0 0)
(-1.32599e-12 0 0)
(-5.3932e-13 0 0)
(-3.49903e-13 0 0)
(-7.10842e-13 0 0)
(3.38852e-13 0 0)
(2.92479e-12 0 0)
(1.57705e-12 0 0)
(-3.30703e-13 0 0)
(1.67889e-12 0 0)
(-4.92523e-13 0 0)
(-6.57185e-13 0 0)
(7.13577e-13 0 0)
(7.31652e-13 0 0)
(1.34109e-12 0 0)
(1.42106e-12 0 0)
(1.41266e-12 0 0)
(9.49867e-13 0 0)
(8.79942e-13 0 0)
(-2.20774e-13 0 0)
(-1.01044e-12 0 0)
(-1.52107e-12 0 0)
(1.06732e-12 0 0)
(-1.06268e-12 0 0)
(-7.46135e-13 0 0)
(-1.14293e-13 0 0)
(-2.90245e-12 0 0)
(-2.81109e-12 0 0)
(-2.59369e-12 0 0)
(-2.28328e-12 0 0)
(-1.65904e-12 0 0)
(2.00105e-12 0 0)
(-3.57732e-13 0 0)
(-1.31408e-12 0 0)
(-3.40944e-12 0 0)
(-6.80141e-13 0 0)
(8.78673e-13 0 0)
(3.57761e-12 0 0)
(1.55814e-12 0 0)
(4.38919e-12 0 0)
(2.59712e-12 0 0)
(2.83805e-12 0 0)
(2.35393e-12 0 0)
(-2.07749e-13 0 0)
(1.98616e-12 0 0)
(8.90564e-13 0 0)
(7.40616e-13 0 0)
(7.90311e-13 0 0)
(1.68437e-12 0 0)
(3.80695e-12 0 0)
(-1.23805e-13 0 0)
(-3.01057e-13 0 0)
(9.64361e-13 0 0)
(1.27309e-12 0 0)
(1.97906e-12 0 0)
(2.6222e-12 0 0)
(4.18633e-13 0 0)
(4.01378e-12 0 0)
(8.69725e-14 0 0)
(3.38724e-13 0 0)
(-1.37971e-12 0 0)
(-1.04573e-12 0 0)
(-2.0952e-12 0 0)
(-5.42202e-12 0 0)
(-4.84516e-12 0 0)
(-5.42475e-12 0 0)
(-2.50206e-12 0 0)
(-3.70404e-12 0 0)
(-4.68564e-12 0 0)
(-3.98429e-12 0 0)
(-2.3108e-12 0 0)
(-8.24436e-13 0 0)
(8.40187e-13 0 0)
(1.93501e-12 0 0)
(3.35461e-12 0 0)
(-4.00727e-13 0 0)
(2.04666e-12 0 0)
(-3.36851e-12 0 0)
(-5.41205e-14 0 0)
(5.59773e-14 0 0)
(3.98901e-12 0 0)
(1.44967e-12 0 0)
(5.81218e-12 0 0)
(1.92525e-12 0 0)
(4.05267e-12 0 0)
(1.69676e-13 0 0)
(6.80522e-13 0 0)
(-7.03197e-13 0 0)
(-4.4529e-13 0 0)
(2.85658e-12 0 0)
(-2.95088e-13 0 0)
(-6.10811e-13 0 0)
(-1.85879e-12 0 0)
(1.51233e-12 0 0)
(-2.61038e-12 0 0)
(-7.57046e-13 0 0)
(-1.92093e-12 0 0)
(5.8864e-13 0 0)
(-2.76039e-12 0 0)
(8.45659e-14 0 0)
(-1.62897e-12 0 0)
(9.46594e-13 0 0)
(-1.98662e-12 0 0)
(3.06077e-13 0 0)
(-1.8975e-12 0 0)
(-2.56431e-12 0 0)
(-3.56178e-12 0 0)
(-1.97297e-12 0 0)
(-4.87397e-12 0 0)
(-8.6804e-13 0 0)
(-3.08597e-12 0 0)
(-2.89007e-12 0 0)
(8.47959e-13 0 0)
(1.56525e-12 0 0)
(1.433e-12 0 0)
(-2.65082e-12 0 0)
(-2.94939e-12 0 0)
(-2.89347e-12 0 0)
(-3.63727e-12 0 0)
(-4.71872e-12 0 0)
(-8.31474e-13 0 0)
(-2.36492e-12 0 0)
(2.02844e-12 0 0)
(7.06907e-13 0 0)
(4.29351e-12 0 0)
(1.0984e-12 0 0)
(1.02251e-12 0 0)
(1.39422e-12 0 0)
(-1.56591e-12 0 0)
(-1.67727e-12 0 0)
(-1.632e-12 0 0)
(-2.19054e-12 0 0)
(8.54239e-13 0 0)
(-8.42024e-13 0 0)
(-1.10722e-12 0 0)
(-7.83346e-13 0 0)
(-3.97978e-13 0 0)
(-9.30433e-13 0 0)
(-5.16867e-13 0 0)
(3.7072e-12 0 0)
(2.828e-12 0 0)
(3.35231e-12 0 0)
(6.29898e-12 0 0)
(6.78974e-12 0 0)
(3.90429e-12 0 0)
(5.06418e-12 0 0)
(3.897e-12 0 0)
(2.50409e-12 0 0)
(2.8459e-12 0 0)
(2.84366e-12 0 0)
(-9.41041e-13 0 0)
(5.61623e-13 0 0)
(-1.97721e-14 0 0)
(-3.25418e-12 0 0)
(-8.77418e-13 0 0)
(1.2745e-12 0 0)
(2.4008e-12 0 0)
(6.44896e-13 0 0)
(-1.23135e-12 0 0)
(1.07396e-12 0 0)
(2.32444e-13 0 0)
(2.79285e-12 0 0)
(-9.02311e-13 0 0)
(2.74728e-12 0 0)
(-1.44975e-12 0 0)
(-8.54468e-13 0 0)
(-4.15355e-12 0 0)
(-4.70822e-12 0 0)
(-2.14596e-12 0 0)
(-4.46942e-12 0 0)
(-3.22325e-12 0 0)
(-1.53067e-12 0 0)
(-4.70545e-12 0 0)
(-2.75479e-12 0 0)
(-4.1959e-12 0 0)
(-4.11553e-12 0 0)
(-9.32194e-13 0 0)
(4.47898e-13 0 0)
(-2.06588e-12 0 0)
(3.38026e-13 0 0)
(-6.90308e-13 0 0)
(-3.05877e-12 0 0)
(-1.71111e-13 0 0)
(-2.40213e-12 0 0)
(6.36602e-13 0 0)
(-2.01167e-12 0 0)
(-1.14446e-12 0 0)
(-1.11995e-12 0 0)
(2.16655e-12 0 0)
(1.4513e-12 0 0)
(4.09293e-12 0 0)
(3.418e-12 0 0)
(3.41501e-12 0 0)
(2.54073e-12 0 0)
(1.58552e-12 0 0)
(2.95594e-14 0 0)
(2.70877e-12 0 0)
(-3.90733e-13 0 0)
(-1.60907e-12 0 0)
(-1.88793e-12 0 0)
(-1.37188e-12 0 0)
(-9.96931e-13 0 0)
(-3.08846e-12 0 0)
(-3.63094e-12 0 0)
(-2.91199e-12 0 0)
(-3.71461e-12 0 0)
(-5.33544e-12 0 0)
(-6.40676e-12 0 0)
(-7.30226e-12 0 0)
(-6.84434e-12 0 0)
(-5.50943e-12 0 0)
(-3.02314e-12 0 0)
(-6.84965e-12 0 0)
(-3.34191e-12 0 0)
(-6.28696e-12 0 0)
(-4.23043e-12 0 0)
(-3.6016e-12 0 0)
(-1.05124e-12 0 0)
(2.19007e-12 0 0)
(7.24338e-13 0 0)
(1.20533e-12 0 0)
(-1.42209e-12 0 0)
(-2.33735e-13 0 0)
(-8.49203e-13 0 0)
(1.47066e-14 0 0)
(-1.92437e-12 0 0)
(-1.10279e-13 0 0)
(-9.94561e-13 0 0)
(6.584e-13 0 0)
(-1.38213e-12 0 0)
(1.42597e-12 0 0)
(3.25946e-12 0 0)
(5.1417e-12 0 0)
(4.27102e-12 0 0)
(1.10108e-12 0 0)
(4.25641e-12 0 0)
(-6.21527e-13 0 0)
(3.85718e-12 0 0)
(2.12347e-12 0 0)
(1.63707e-12 0 0)
(1.70681e-12 0 0)
(4.39009e-12 0 0)
(6.01791e-12 0 0)
(2.76996e-12 0 0)
(6.12418e-12 0 0)
(3.65605e-12 0 0)
(4.69677e-12 0 0)
(2.38029e-12 0 0)
(5.14002e-12 0 0)
(7.23408e-12 0 0)
(5.61126e-12 0 0)
(5.77851e-12 0 0)
(4.569e-12 0 0)
(6.36126e-12 0 0)
(3.76171e-12 0 0)
(3.85388e-12 0 0)
(-4.1734e-13 0 0)
(-5.1316e-13 0 0)
(1.3845e-13 0 0)
(-8.53085e-14 0 0)
(2.43747e-12 0 0)
(2.35363e-12 0 0)
(4.19572e-12 0 0)
(-9.2594e-14 0 0)
(1.17754e-12 0 0)
(-1.13761e-12 0 0)
(5.34773e-13 0 0)
(1.81564e-12 0 0)
(8.78036e-13 0 0)
(8.91352e-13 0 0)
(1.64358e-12 0 0)
(6.94034e-14 0 0)
(8.96959e-13 0 0)
(2.63961e-12 0 0)
(-1.90434e-13 0 0)
(2.50591e-12 0 0)
(3.39876e-12 0 0)
(7.05839e-13 0 0)
(-1.90348e-13 0 0)
(1.72358e-12 0 0)
(2.27013e-12 0 0)
(-6.76489e-13 0 0)
(-1.52714e-12 0 0)
(-1.89131e-12 0 0)
(-2.2343e-12 0 0)
(3.19173e-13 0 0)
(-8.26693e-13 0 0)
(5.95416e-13 0 0)
(-2.40417e-12 0 0)
(2.47455e-13 0 0)
(-2.29322e-13 0 0)
(8.05512e-13 0 0)
(1.08874e-12 0 0)
(3.83096e-12 0 0)
(1.43585e-12 0 0)
(-6.53862e-13 0 0)
(2.39314e-15 0 0)
(2.61901e-13 0 0)
(-9.78861e-13 0 0)
(-4.72361e-13 0 0)
(-8.10952e-13 0 0)
(2.4538e-13 0 0)
(-1.96621e-13 0 0)
(1.72347e-12 0 0)
(2.9112e-12 0 0)
(1.31503e-12 0 0)
(-1.17747e-12 0 0)
(-1.8597e-12 0 0)
(-1.10465e-12 0 0)
(-2.73819e-12 0 0)
(-7.8251e-13 0 0)
(-4.46784e-13 0 0)
(7.99253e-14 0 0)
(1.51726e-12 0 0)
(1.06193e-12 0 0)
(-7.33502e-13 0 0)
(3.9753e-12 0 0)
(1.99533e-12 0 0)
(4.46215e-12 0 0)
(5.95215e-12 0 0)
(8.07861e-12 0 0)
(1.03244e-11 0 0)
(8.20864e-12 0 0)
(9.5343e-12 0 0)
(9.92205e-12 0 0)
(1.03221e-11 0 0)
(9.85703e-12 0 0)
(1.15921e-11 0 0)
(1.09143e-11 0 0)
(9.69857e-12 0 0)
(1.13807e-11 0 0)
(1.243e-11 0 0)
(1.14596e-11 0 0)
(1.20323e-11 0 0)
(1.06882e-11 0 0)
(1.36047e-11 0 0)
(1.17564e-11 0 0)
(1.31778e-11 0 0)
(1.38099e-11 0 0)
(1.8765e-11 0 0)
(1.59362e-11 0 0)
)
;

boundaryField
{
    sides
    {
        type            zeroGradient;
    }
    empty
    {
        type            empty;
    }
}


// ************************************************************************* //
