/*--------------------------------*- C++ -*----------------------------------*\
| =========                 |                                                 |
| \\      /  F ield         | OpenFOAM: The Open Source CFD Toolbox           |
|  \\    /   O peration     | Version:  4.1                                   |
|   \\  /    A nd           | Web:      www.OpenFOAM.org                      |
|    \\/     M anipulation  |                                                 |
\*---------------------------------------------------------------------------*/
FoamFile
{
    version     2.0;
    format      ascii;
    class       volScalarField;
    location    "0.007";
    object      mag(U);
}
// * * * * * * * * * * * * * * * * * * * * * * * * * * * * * * * * * * * * * //

dimensions      [0 1 -1 0 0 0 0];

internalField   nonuniform List<scalar> 
1000
(
1.44004e-11
1.29075e-11
1.51802e-11
1.34276e-11
1.3899e-11
1.32493e-11
1.22494e-11
1.30566e-11
1.33614e-11
1.60316e-11
1.33498e-11
1.29421e-11
1.09202e-11
1.25589e-11
8.04516e-12
1.0626e-11
8.48235e-12
9.14451e-12
5.02717e-12
9.15816e-12
4.97819e-12
9.26989e-12
6.43163e-12
1.04493e-11
9.47273e-12
1.36744e-11
1.18939e-11
1.36179e-11
1.37324e-11
1.4162e-11
1.44754e-11
1.52896e-11
1.66595e-11
1.49261e-11
1.78537e-11
1.60798e-11
2.00095e-11
1.6287e-11
1.86304e-11
1.53038e-11
1.83266e-11
1.52965e-11
1.49064e-11
1.01869e-11
1.27572e-11
8.27629e-12
1.06952e-11
8.78215e-12
1.18095e-11
6.61586e-12
1.03155e-11
2.71856e-12
6.35048e-12
3.26112e-12
3.36354e-12
2.71646e-12
1.36366e-12
1.55942e-12
6.43311e-14
4.53364e-12
1.7854e-12
6.9048e-13
5.00386e-12
3.42502e-12
6.37386e-12
2.45995e-12
6.15096e-12
3.69471e-12
8.24055e-12
4.45935e-12
9.87697e-12
5.15151e-12
5.87655e-12
3.35421e-12
8.80494e-12
3.59083e-12
8.14081e-12
5.47e-12
8.72027e-12
6.55467e-12
7.79033e-12
7.85574e-12
7.48605e-12
1.02784e-11
8.14887e-12
1.17043e-11
8.10205e-12
1.23768e-11
8.13702e-12
1.11771e-11
1.13196e-11
1.60829e-11
1.09697e-11
1.46656e-11
1.05247e-11
1.17451e-11
9.35644e-12
1.1334e-11
1.15892e-11
1.45846e-11
1.35155e-11
1.55406e-11
1.55238e-11
1.33923e-11
1.46542e-11
1.57615e-11
1.30702e-11
1.17975e-11
1.00069e-11
1.14491e-11
1.26995e-11
1.06137e-11
8.89391e-12
5.95919e-12
7.59337e-12
6.30223e-12
8.097e-12
8.4951e-12
1.20067e-11
1.0709e-11
1.20034e-11
1.18115e-11
1.0499e-11
1.17429e-11
1.24836e-11
1.18778e-11
1.32838e-11
1.43798e-11
1.36518e-11
1.70301e-11
1.46915e-11
1.2884e-11
1.22925e-11
1.16068e-11
1.33486e-11
1.36168e-11
1.30406e-11
1.40368e-11
1.29854e-11
1.56624e-11
1.6365e-11
1.62304e-11
1.60932e-11
1.74053e-11
1.79771e-11
1.97349e-11
2.00904e-11
1.83326e-11
1.9557e-11
1.9449e-11
2.05359e-11
2.18503e-11
2.21508e-11
1.90029e-11
2.22472e-11
2.15794e-11
2.00415e-11
1.90933e-11
1.91878e-11
2.63637e-11
3.63346e-11
5.72914e-11
9.71304e-11
1.74238e-10
3.23557e-10
6.11362e-10
1.16232e-09
2.2032e-09
4.15434e-09
7.78909e-09
1.45155e-08
2.68814e-08
4.94653e-08
9.04383e-08
1.64272e-07
2.96423e-07
5.31323e-07
9.45956e-07
1.67265e-06
2.93712e-06
5.12125e-06
8.86585e-06
1.52373e-05
2.59947e-05
4.40152e-05
7.3961e-05
0.000123318
0.000203992
0.000334733
0.00054477
0.000879196
0.00140682
0.00223147
0.00350799
0.00546444
0.00843254
0.0128881
0.0195043
0.0292185
0.043316
0.0635279
0.0921428
0.132125
0.187231
0.2621
0.362306
0.494338
0.665461
0.883449
1.15611
1.49059
1.89236
2.36368
2.90224
3.50208
4.15642
4.85949
5.60653
6.39331
7.21587
8.0705
8.95372
9.86233
10.7934
11.7444
12.713
13.6973
14.6953
15.7057
16.727
17.7582
18.7983
19.8463
20.9015
21.9632
23.0309
24.1041
25.1823
26.265
27.3521
28.443
29.5376
30.6356
31.7367
32.8408
33.9477
35.0572
36.1691
37.2833
38.3996
39.518
40.6383
41.7604
42.8843
44.0098
45.1369
46.2654
47.3953
48.5266
49.6591
50.7929
51.9278
53.0638
54.2008
55.3389
56.4779
57.6178
58.7585
59.9001
61.0424
62.1855
63.3293
64.4738
65.6189
66.7647
67.9109
69.0578
70.2051
71.353
72.5012
73.6499
74.799
75.9485
77.0983
78.2485
79.3989
80.5496
81.7006
82.8517
84.0031
85.1546
86.3063
87.4581
88.6101
89.7621
90.9141
92.0662
93.2183
94.3704
95.5225
96.6745
97.8265
98.9783
100.13
101.282
102.433
103.584
104.735
105.886
107.036
108.186
109.336
110.486
111.635
112.784
113.932
115.08
116.227
117.374
118.52
119.666
120.811
121.956
123.099
124.242
125.385
126.526
127.667
128.806
129.945
131.083
132.22
133.356
134.49
135.624
136.756
137.887
139.016
140.144
141.271
142.396
143.519
144.64
145.76
146.878
147.994
149.107
150.219
151.328
152.435
153.539
154.64
155.738
156.834
157.926
159.015
160.1
161.181
162.259
163.332
164.401
165.466
166.525
167.579
168.627
169.67
170.706
171.735
172.758
173.772
174.779
175.777
176.766
177.746
178.715
179.673
180.619
181.552
182.472
183.378
184.268
185.143
185.999
186.838
187.656
188.454
189.229
189.98
190.707
191.407
192.079
192.722
193.334
193.914
194.461
194.974
195.451
195.893
196.298
196.666
196.998
197.294
197.555
197.782
197.976
198.14
198.277
198.387
198.475
198.543
198.593
198.628
198.652
198.667
198.674
198.676
198.676
198.676
198.676
198.674
198.669
198.661
198.65
198.639
198.629
198.62
198.613
198.607
198.602
198.599
198.596
198.594
198.593
198.592
198.591
198.59
198.59
198.589
198.589
198.588
198.587
198.587
198.586
198.585
198.585
198.584
198.584
198.583
198.583
198.582
198.581
198.581
198.58
198.58
198.579
198.579
198.578
198.578
198.577
198.576
198.576
198.575
198.575
198.575
198.574
198.574
198.573
198.573
198.572
198.572
198.571
198.571
198.57
198.57
198.569
198.569
198.568
198.568
198.567
198.567
198.566
198.566
198.565
198.565
198.564
198.564
198.563
198.563
198.563
198.562
198.562
198.561
198.561
198.561
198.56
198.56
198.56
198.559
198.559
198.559
198.558
198.558
198.558
198.558
198.557
198.557
198.557
198.557
198.557
198.556
198.556
198.556
198.556
198.556
198.556
198.555
198.555
198.555
198.555
198.555
198.555
198.555
198.554
198.554
198.554
198.554
198.554
198.553
198.553
198.553
198.553
198.553
198.552
198.552
198.552
198.552
198.552
198.551
198.551
198.551
198.551
198.551
198.55
198.55
198.55
198.55
198.55
198.549
198.549
198.549
198.549
198.549
198.549
198.549
198.548
198.548
198.548
198.548
198.548
198.548
198.548
198.547
198.547
198.547
198.547
198.547
198.547
198.547
198.547
198.546
198.546
198.546
198.546
198.546
198.546
198.545
198.545
198.545
198.545
198.545
198.545
198.545
198.544
198.544
198.544
198.544
198.544
198.544
198.543
198.543
198.543
198.543
198.543
198.543
198.543
198.542
198.542
198.542
198.542
198.542
198.541
198.541
198.541
198.541
198.541
198.541
198.541
198.541
198.541
198.541
198.54
198.54
198.54
198.54
198.54
198.54
198.539
198.54
198.54
198.54
198.54
198.539
198.539
198.538
198.538
198.538
198.537
198.536
198.535
198.539
198.546
198.558
198.586
198.66
198.795
198.811
198.669
198.556
198.509
198.5
198.491
198.483
198.499
198.528
198.535
198.519
198.516
198.539
198.554
198.535
198.514
198.528
198.555
198.549
198.521
198.518
198.547
198.56
198.534
198.513
198.531
198.557
198.543
198.511
198.515
198.546
198.55
198.519
198.505
198.532
198.555
198.534
198.505
198.516
198.548
198.547
198.515
198.506
198.534
198.552
198.528
198.503
198.521
198.55
198.54
198.508
198.509
198.541
198.551
198.521
198.5
198.525
198.553
198.537
198.505
198.51
198.542
198.548
198.517
198.502
198.529
198.552
198.53
198.501
198.515
198.548
198.544
198.509
198.503
198.535
198.552
198.525
198.498
198.517
198.549
198.54
198.506
198.504
198.537
198.549
198.519
198.497
198.522
198.55
198.533
198.499
198.507
198.542
198.545
198.511
198.496
198.526
198.55
198.527
198.496
198.509
198.543
198.54
198.505
198.497
198.53
198.548
198.519
198.492
198.514
198.547
198.534
198.497
198.498
198.534
198.545
198.512
198.489
198.515
198.545
198.527
198.492
198.499
198.536
198.539
198.503
198.487
198.519
198.544
198.517
198.484
198.501
198.538
198.532
198.492
198.485
198.521
198.54
198.508
198.479
198.5
198.535
198.522
198.483
198.483
198.52
198.531
198.494
198.47
198.499
198.53
198.507
198.468
198.477
198.516
198.517
198.475
198.458
198.491
198.517
198.487
198.449
198.463
198.501
198.493
198.449
198.437
198.473
198.49
198.452
198.417
198.438
198.472
198.451
198.402
198.4
198.438
198.441
198.392
198.36
198.387
198.414
198.379
198.326
198.327
198.361
198.352
198.297
198.265
198.286
198.301
198.256
198.201
198.196
198.217
198.193
198.129
198.094
198.103
198.099
198.038
197.976
197.961
197.961
197.913
197.836
197.79
197.777
197.741
197.656
197.578
197.538
197.503
197.415
197.301
197.22
197.167
197.082
196.934
196.798
196.711
196.623
196.448
196.236
196.084
195.97
195.772
195.463
195.194
195.015
194.8
194.381
193.926
193.614
193.289
192.649
191.835
191.009
189.72
187.138
180.791
161.051
104.963
37.4961
9.93771
2.43986
0.582692
0.138126
0.0326968
0.00773752
0.00183087
0.000433197
0.000102495
2.42502e-05
5.73755e-06
1.35751e-06
3.21201e-07
7.60154e-08
1.80062e-08
4.2814e-09
1.03287e-09
2.63257e-10
8.22616e-11
3.76562e-11
2.75376e-11
2.42806e-11
2.30074e-11
2.32382e-11
2.49608e-11
2.41876e-11
2.65402e-11
2.56297e-11
2.79921e-11
2.62555e-11
2.75682e-11
2.89367e-11
3.03958e-11
2.9142e-11
3.14044e-11
3.19457e-11
2.85694e-11
3.03281e-11
2.93999e-11
2.99841e-11
3.08066e-11
3.02444e-11
2.91037e-11
2.85764e-11
2.66028e-11
2.71881e-11
2.4439e-11
2.73817e-11
2.52795e-11
2.84033e-11
2.56089e-11
2.61877e-11
2.52924e-11
2.51914e-11
2.4036e-11
2.72576e-11
2.68785e-11
2.55297e-11
2.33713e-11
2.38086e-11
2.29394e-11
1.9532e-11
1.98493e-11
2.11586e-11
2.08063e-11
2.18948e-11
2.17352e-11
2.41897e-11
2.20834e-11
2.08906e-11
1.95864e-11
2.30753e-11
2.19881e-11
2.10565e-11
2.03091e-11
1.88268e-11
1.73215e-11
1.82948e-11
1.9716e-11
1.88216e-11
2.15114e-11
2.03507e-11
2.00844e-11
2.10257e-11
2.32985e-11
2.35008e-11
2.39786e-11
2.42577e-11
2.64303e-11
2.59041e-11
2.5777e-11
2.45559e-11
2.67864e-11
2.56597e-11
2.36955e-11
2.11162e-11
2.23509e-11
2.07314e-11
2.0912e-11
2.12815e-11
2.20991e-11
2.30274e-11
2.21697e-11
2.21351e-11
2.35159e-11
2.52955e-11
2.38927e-11
2.32792e-11
2.12727e-11
2.36001e-11
2.07198e-11
2.19171e-11
2.13678e-11
2.37852e-11
2.31279e-11
2.54325e-11
2.50012e-11
3.02152e-11
2.79135e-11
2.94141e-11
2.73999e-11
)
;

boundaryField
{
    sides
    {
        type            calculated;
        value           nonuniform List<scalar> 2(2.73999e-11 1.44004e-11);
    }
    empty
    {
        type            empty;
    }
}


// ************************************************************************* //
