/*--------------------------------*- C++ -*----------------------------------*\
| =========                 |                                                 |
| \\      /  F ield         | OpenFOAM: The Open Source CFD Toolbox           |
|  \\    /   O peration     | Version:  4.1                                   |
|   \\  /    A nd           | Web:      www.OpenFOAM.org                      |
|    \\/     M anipulation  |                                                 |
\*---------------------------------------------------------------------------*/
FoamFile
{
    version     2.0;
    format      ascii;
    class       volScalarField;
    location    "0.007";
    object      p;
}
// * * * * * * * * * * * * * * * * * * * * * * * * * * * * * * * * * * * * * //

dimensions      [1 -1 -2 0 0 0 0];

internalField   nonuniform List<scalar> 
1000
(
100000
100000
100000
100000
100000
100000
100000
100000
100000
100000
100000
100000
100000
100000
100000
100000
100000
100000
100000
100000
100000
100000
100000
100000
100000
100000
100000
100000
100000
100000
100000
100000
100000
100000
100000
100000
100000
100000
100000
100000
100000
100000
100000
100000
100000
100000
100000
100000
100000
100000
100000
100000
100000
100000
100000
100000
100000
100000
100000
100000
100000
100000
100000
100000
100000
100000
100000
100000
100000
100000
100000
100000
100000
100000
100000
100000
100000
100000
100000
100000
100000
100000
100000
100000
100000
100000
100000
100000
100000
100000
100000
100000
100000
100000
100000
100000
100000
100000
100000
100000
100000
100000
100000
100000
100000
100000
100000
100000
100000
100000
100000
100000
100000
100000
100000
100000
100000
100000
100000
100000
100000
100000
100000
100000
100000
100000
100000
100000
100000
100000
100000
100000
100000
100000
100000
100000
100000
100000
100000
100000
100000
100000
100000
100000
100000
100000
100000
100000
100000
100000
100000
100000
100000
100000
100000
100000
100000
100000
100000
100000
100000
100000
100000
100000
100000
100000
100000
100000
100000
100000
100000
100000
100000
100000
100000
100000
100000
100000
100000
100000
100000
100000
100000
100000
100000
100000
100000
99999.9
99999.9
99999.8
99999.7
99999.5
99999.2
99998.8
99998.1
99997.1
99995.5
99993.3
99989.9
99985
99978
99968.1
99954.2
99935.1
99909.1
99874.3
99828.4
99768.9
99693.1
99598.3
99481.9
99342.1
99178.1
98990.7
98782.4
98555.8
98312.9
98055.5
97785.1
97503.2
97211.1
96910
96601.2
96285.7
95964.4
95638.2
95307.7
94973.6
94636.4
94296.7
93954.8
93611
93265.8
92919.3
92571.8
92223.5
91874.6
91525.2
91175.5
90825.6
90475.6
90125.7
89775.8
89426.1
89076.7
88727.5
88378.8
88030.5
87682.6
87335.3
86988.6
86642.4
86296.9
85952
85607.9
85264.4
84921.7
84579.7
84238.6
83898.2
83558.7
83220
82882.2
82545.2
82209.2
81874
81539.8
81206.4
80874
80542.6
80212.1
79882.5
79553.9
79226.3
78899.7
78574.1
78249.5
77925.9
77603.3
77281.7
76961.2
76641.7
76323.2
76005.8
75689.4
75374
75059.7
74746.5
74434.3
74123.2
73813.1
73504.1
73196.2
72889.4
72583.7
72279
71975.4
71672.9
71371.5
71071.2
70772
70473.9
70176.9
69881
69586.2
69292.5
68999.9
68708.5
68418.1
68128.9
67840.8
67553.8
67267.9
66983.2
66699.6
66417.1
66135.8
65855.6
65576.5
65298.6
65021.9
64746.3
64471.8
64198.5
63926.4
63655.4
63385.6
63117
62849.6
62583.4
62318.3
62054.5
61791.8
61530.4
61270.2
61011.2
60753.4
60496.9
60241.6
59987.6
59734.9
59483.5
59233.3
58984.5
58736.9
58490.7
58245.9
58002.4
57760.3
57519.6
57280.3
57042.5
56806.1
56571.2
56337.8
56106
55875.7
55647
55420
55194.6
54970.9
54749
54528.9
54310.6
54094.2
53879.8
53667.3
53457
53248.8
53042.8
52839.1
52637.8
52439
52242.7
52049.2
51858.4
51670.7
51485.8
51304.3
51126
50951.4
50780.3
50613.1
50450
50291
50136.7
49986.9
49842
49702.4
49568
49439.3
49316.3
49199.5
49088.9
48984.8
48887.3
48796.6
48712.8
48636.1
48566.2
48503.2
48447.2
48397.6
48354.6
48317.6
48286.3
48260.4
48239.3
48222.4
48209.5
48199.9
48192.7
48188.2
48185.4
48183.8
48183.4
48183.4
48183.5
48183.7
48184.1
48184.7
48186
48187.9
48189.9
48191.7
48193.4
48194.9
48196
48196.8
48197.5
48198
48198.3
48198.6
48198.8
48198.9
48199.1
48199.2
48199.3
48199.4
48199.5
48199.6
48199.7
48199.8
48199.9
48200
48200.1
48200.2
48200.3
48200.4
48200.5
48200.6
48200.7
48200.8
48200.9
48201
48201.1
48201.1
48201.2
48201.3
48201.4
48201.5
48201.6
48201.7
48201.8
48201.8
48201.9
48202
48202.1
48202.1
48202.2
48202.3
48202.4
48202.5
48202.5
48202.6
48202.7
48202.8
48202.8
48202.9
48203
48203.1
48203.2
48203.2
48203.3
48203.4
48203.5
48203.5
48203.6
48203.7
48203.8
48203.8
48203.9
48203.9
48204
48204.1
48204.1
48204.2
48204.2
48204.2
48204.3
48204.3
48204.4
48204.4
48204.4
48204.4
48204.5
48204.5
48204.5
48204.5
48204.6
48204.6
48204.6
48204.6
48204.6
48204.6
48204.7
48204.7
48204.7
48204.7
48204.7
48204.7
48204.7
48204.8
48204.8
48204.8
48204.8
48204.8
48204.9
48204.9
48204.9
48204.9
48205
48205
48205
48205
48205.1
48205.1
48205.1
48205.1
48205.1
48205.2
48205.2
48205.2
48205.2
48205.2
48205.2
48205.3
48205.3
48205.3
48205.3
48205.3
48205.3
48205.3
48205.3
48205.3
48205.4
48205.4
48205.4
48205.4
48205.4
48205.4
48205.4
48205.4
48205.5
48205.5
48205.5
48205.5
48205.5
48205.5
48205.5
48205.6
48205.6
48205.6
48205.6
48205.6
48205.6
48205.6
48205.6
48205.6
48205.6
48205.6
48205.6
48205.6
48205.7
48205.7
48205.7
48205.7
48205.7
48205.7
48205.7
48205.7
48205.7
48205.7
48205.7
48205.7
48205.6
48205.7
48205.9
48205.9
48205.7
48205.6
48205.7
48205.7
48205.7
48205.7
48205.7
48205.7
48205.7
48205.7
48205.8
48205.7
48205.7
48205.7
48205.7
48205.7
48205.7
48205.8
48205.8
48205.8
48205.7
48205.7
48205.7
48205.7
48205.8
48205.7
48205.7
48205.7
48205.9
48206.2
48205.9
48205.6
48206
48207.8
48212.8
48215.2
48201.8
48198.9
48195.5
48205.6
48211.6
48207.5
48199.8
48203.9
48212.2
48210.9
48200.3
48199.1
48210.4
48214.3
48203.5
48196.7
48204.9
48214.9
48210.8
48197.8
48198.2
48212.9
48215.6
48201.5
48195.4
48206.9
48216.3
48208.4
48195.8
48199.8
48214.8
48214.4
48198.1
48195.2
48210.5
48217
48205
48194.8
48202.2
48215.6
48213.2
48197.2
48196
48211.6
48216.3
48202.6
48194.6
48205.1
48216.3
48209.9
48195.3
48197.8
48214.5
48216
48199.5
48194
48207.6
48217.1
48208.1
48194.9
48199.1
48214.8
48214.6
48198.3
48194.9
48209.9
48216.9
48204.7
48193.9
48202.3
48216.6
48212.5
48195.5
48195.5
48212.9
48217
48201.7
48193.5
48204.7
48216.7
48210.6
48195.1
48196.8
48213.8
48216
48199.5
48193.6
48207.6
48217.3
48206.9
48193.6
48199.3
48215.8
48214.7
48196.7
48193.6
48210.1
48217.3
48204.3
48193.1
48201.4
48216.2
48212.6
48195.1
48194.7
48212.6
48216.8
48200.6
48192.3
48205
48217.4
48209.5
48193
48195.8
48214.5
48216.2
48198.2
48192.1
48206.9
48217.2
48206.8
48192.4
48197.9
48215.4
48214.4
48195.4
48192.3
48209.9
48217.4
48202.6
48190.9
48201
48216.6
48211.6
48192.8
48192.8
48212
48216.6
48199.5
48190.3
48203
48216.3
48208.6
48191.4
48194
48213.2
48214.9
48195.6
48189.3
48205.9
48216.5
48203.6
48188.8
48195.7
48214.2
48212.3
48191.5
48188.2
48207.2
48215.1
48199
48186.4
48196.2
48212.9
48207.9
48187.5
48186.9
48207.2
48211.9
48192
48182.5
48196.8
48210.8
48199.9
48180.9
48184.4
48205.6
48205.9
48182.2
48176
48194.2
48205.1
48188.3
48172
48177.9
48197.5
48194.6
48170.4
48166
48183.1
48191.7
48172.6
48158.7
48164.5
48180.9
48174.4
48151.2
48148.3
48162.8
48168
48145.1
48134.4
48139.3
48151.7
48138.8
48117.7
48115.2
48124.8
48125.2
48097.6
48089
48089.8
48097.7
48076.7
48054.8
48050.4
48055
48051
48010.1
47997.1
47995.1
48002.2
47960.1
47923
47914.3
47921.3
47901
47824.2
47801.1
47797.9
47802
47692.9
47629.3
47613.6
47624.3
47529.1
47365.9
47287.7
47163.1
46920
46267.3
44030.5
35391.8
28076.5
25815.6
25199
25047.4
25011.2
25002.7
25000.6
25000.1
25000
25000
25000
25000
25000
25000
25000
25000
25000
25000
25000
25000
25000
25000
25000
25000
25000
25000
25000
25000
25000
25000
25000
25000
25000
25000
25000
25000
25000
25000
25000
25000
25000
25000
25000
25000
25000
25000
25000
25000
25000
25000
25000
25000
25000
25000
25000
25000
25000
25000
25000
25000
25000
25000
25000
25000
25000
25000
25000
25000
25000
25000
25000
25000
25000
25000
25000
25000
25000
25000
25000
25000
25000
25000
25000
25000
25000
25000
25000
25000
25000
25000
25000
25000
25000
25000
25000
25000
25000
25000
25000
25000
25000
25000
25000
25000
25000
25000
25000
25000
25000
25000
25000
25000
25000
25000
25000
25000
25000
25000
25000
25000
25000
25000
)
;

boundaryField
{
    sides
    {
        type            zeroGradient;
    }
    empty
    {
        type            empty;
    }
}


// ************************************************************************* //
