/*--------------------------------*- C++ -*----------------------------------*\
| =========                 |                                                 |
| \\      /  F ield         | OpenFOAM: The Open Source CFD Toolbox           |
|  \\    /   O peration     | Version:  4.1                                   |
|   \\  /    A nd           | Web:      www.OpenFOAM.org                      |
|    \\/     M anipulation  |                                                 |
\*---------------------------------------------------------------------------*/
FoamFile
{
    version     2.0;
    format      ascii;
    class       surfaceScalarField;
    location    "0.007";
    object      phi;
}
// * * * * * * * * * * * * * * * * * * * * * * * * * * * * * * * * * * * * * //

dimensions      [1 0 -1 0 0 0 0];

internalField   nonuniform List<scalar> 
999
(
-4.8658e-11
-4.75495e-11
-5.01714e-11
-4.7983e-11
-4.81748e-11
-4.24834e-11
-4.5894e-11
-4.48708e-11
-5.13225e-11
-5.1962e-11
-4.48068e-11
-4.03801e-11
-4.23412e-11
-3.5385e-11
-3.22018e-11
-3.3026e-11
-3.11147e-11
-2.46274e-11
-2.4805e-11
-2.47269e-11
-2.36469e-11
-2.82299e-11
-2.81446e-11
-3.5989e-11
-4.05862e-11
-4.41318e-11
-4.30376e-11
-4.83951e-11
-4.83453e-11
-5.0818e-11
-5.06475e-11
-5.61755e-11
-5.4527e-11
-5.77529e-11
-5.74332e-11
-6.36362e-11
-6.28759e-11
-6.18456e-11
-5.92379e-11
-5.59552e-11
-6.1334e-11
-5.25162e-11
-4.18723e-11
-3.9897e-11
-3.72609e-11
-3.26708e-11
-3.48734e-11
-3.58895e-11
-3.11999e-11
-3.03686e-11
-2.28297e-11
-1.46869e-11
-1.72093e-11
-1.28466e-11
-9.61364e-12
-6.55831e-12
-5.66303e-12
-2.44427e-12
-7.34701e-12
-5.50671e-12
2.33769e-12
7.33991e-12
1.42464e-11
1.83817e-11
1.47651e-11
1.33937e-11
1.92983e-11
1.89999e-11
2.25242e-11
2.53451e-11
2.67661e-11
1.8467e-11
1.56106e-11
2.19558e-11
2.143e-11
1.93126e-11
2.45279e-11
2.46914e-11
2.51745e-11
2.65956e-11
2.7967e-11
2.52314e-11
3.06741e-11
3.37934e-11
3.3971e-11
3.38574e-11
3.52856e-11
3.64935e-11
3.22657e-11
3.85114e-11
5.00719e-11
4.43308e-11
4.64908e-11
4.32578e-11
3.9698e-11
3.58895e-11
3.52429e-11
4.02451e-11
4.62279e-11
4.82601e-11
5.05409e-11
5.40297e-11
5.01572e-11
4.7315e-11
5.48397e-11
5.02709e-11
4.36415e-11
3.5925e-11
3.82627e-11
4.25118e-11
4.14744e-11
3.32037e-11
2.51958e-11
2.28226e-11
2.55156e-11
2.4265e-11
2.96794e-11
3.49161e-11
4.02238e-11
3.87317e-11
4.06573e-11
3.92077e-11
3.86962e-11
4.12612e-11
4.35492e-11
4.26326e-11
4.92264e-11
4.6974e-11
5.52802e-11
5.48894e-11
4.75922e-11
4.28528e-11
4.27747e-11
4.22418e-11
4.81251e-11
4.51124e-11
4.81393e-11
4.65477e-11
5.01359e-11
5.46123e-11
5.76819e-11
5.58416e-11
5.98419e-11
5.92451e-11
6.70752e-11
6.98392e-11
6.57892e-11
6.75371e-11
6.61018e-11
6.91358e-11
7.59215e-11
7.51967e-11
7.14238e-11
7.19993e-11
7.60991e-11
7.35412e-11
6.6791e-11
6.39986e-11
7.93534e-11
1.05437e-10
1.57158e-10
2.58488e-10
4.53589e-10
8.31236e-10
1.56086e-09
2.96294e-09
5.62601e-09
1.06348e-08
1.99903e-08
3.7356e-08
6.9374e-08
1.28026e-07
2.34754e-07
4.27669e-07
7.74025e-07
1.39162e-06
2.48525e-06
4.40824e-06
7.7654e-06
1.35839e-05
2.35938e-05
4.06856e-05
6.96469e-05
0.00011834
0.000199559
0.000333939
0.000554447
0.000913239
0.00149202
0.00241748
0.00388393
0.0061862
0.00976642
0.0152798
0.0236852
0.0363674
0.0552986
0.083247
0.124037
0.182866
0.266666
0.384513
0.548028
0.771748
1.07338
1.47386
1.99709
2.66922
3.51737
4.56769
5.8424
7.35581
9.10798
11.0795
13.2428
15.5733
18.052
20.6622
23.3887
26.2171
29.1338
32.1266
35.1841
38.2963
41.4541
44.6497
47.8764
51.1281
54.3997
57.6868
60.9854
64.2923
67.6046
70.9197
74.2354
77.5498
80.8612
84.1682
87.4694
90.7636
94.0499
97.3273
100.595
103.852
107.099
110.333
113.555
116.765
119.962
123.145
126.314
129.469
132.609
135.735
138.846
141.941
145.022
148.086
151.135
154.168
157.185
160.185
163.169
166.137
169.089
172.024
174.942
177.843
180.727
183.595
186.446
189.279
192.096
194.896
197.678
200.444
203.192
205.923
208.636
211.333
214.012
216.674
219.319
221.947
224.557
227.15
229.726
232.284
234.825
237.349
239.856
242.345
244.817
247.272
249.71
252.131
254.534
256.92
259.29
261.642
263.977
266.295
268.595
270.879
273.146
275.396
277.629
279.845
282.044
284.226
286.391
288.54
290.672
292.787
294.885
296.967
299.031
301.08
303.111
305.126
307.125
309.106
311.072
313.021
314.953
316.869
318.768
320.651
322.518
324.368
326.202
328.02
329.821
331.606
333.374
335.127
336.863
338.582
340.286
341.973
343.644
345.299
346.937
348.559
350.165
351.754
353.327
354.884
356.424
357.947
359.455
360.945
362.419
363.876
365.317
366.741
368.147
369.537
370.91
372.265
373.603
374.923
376.226
377.511
378.777
380.026
381.256
382.467
383.66
384.831
385.987
387.115
388.235
389.318
390.4
391.438
392.474
393.474
394.451
395.422
396.33
397.268
398.119
398.993
399.818
400.598
401.4
402.104
402.832
403.512
404.126
404.773
405.322
405.859
406.391
406.823
407.274
407.678
408.007
408.355
408.641
408.874
409.118
409.303
409.448
409.601
409.707
409.78
409.861
409.912
409.94
409.969
409.988
409.994
409.993
409.994
409.994
409.991
409.99
409.986
409.98
409.971
409.961
409.951
409.941
409.934
409.929
409.924
409.92
409.917
409.914
409.911
409.91
409.908
409.907
409.906
409.905
409.904
409.902
409.901
409.9
409.898
409.897
409.896
409.895
409.894
409.893
409.891
409.89
409.889
409.887
409.886
409.885
409.884
409.882
409.881
409.88
409.878
409.877
409.876
409.875
409.873
409.872
409.871
409.87
409.868
409.867
409.865
409.864
409.863
409.862
409.86
409.859
409.858
409.856
409.855
409.853
409.852
409.85
409.849
409.848
409.846
409.844
409.843
409.842
409.84
409.838
409.837
409.836
409.834
409.833
409.831
409.83
409.828
409.826
409.825
409.823
409.822
409.82
409.819
409.817
409.816
409.814
409.812
409.811
409.809
409.807
409.806
409.805
409.803
409.801
409.799
409.798
409.796
409.794
409.792
409.791
409.789
409.787
409.785
409.784
409.782
409.779
409.777
409.775
409.774
409.771
409.768
409.766
409.765
409.763
409.76
409.757
409.755
409.753
409.75
409.747
409.745
409.743
409.741
409.737
409.734
409.732
409.73
409.727
409.723
409.719
409.717
409.715
409.712
409.707
409.703
409.701
409.699
409.696
409.691
409.686
409.682
409.68
409.678
409.674
409.668
409.663
409.659
409.656
409.653
409.648
409.642
409.635
409.631
409.628
409.625
409.621
409.613
409.604
409.597
409.592
409.589
409.586
409.58
409.57
409.559
409.55
409.544
409.54
409.537
409.531
409.518
409.504
409.492
409.483
409.478
409.475
409.47
409.453
409.431
409.42
409.41
409.399
409.392
409.385
409.371
409.346
409.32
409.298
409.284
409.276
409.272
409.263
409.235
409.192
409.148
409.11
409.083
409.064
409.054
409.048
409.036
409.001
408.905
408.797
408.694
408.61
408.552
408.52
408.507
408.506
408.535
408.657
408.789
408.876
408.863
408.668
406.734
397.517
376.641
356.8
339.437
324.807
312.479
302.298
294.484
288.755
284.322
280.778
278.262
276.737
275.765
274.876
274.07
273.726
273.832
273.75
273.326
273.165
273.394
273.575
273.4
273.122
273.177
273.527
273.548
273.163
273.092
273.46
273.587
273.306
273.093
273.272
273.569
273.515
273.147
273.119
273.516
273.6
273.265
273.107
273.328
273.582
273.473
273.141
273.17
273.55
273.591
273.191
273.103
273.451
273.618
273.402
273.121
273.219
273.582
273.586
273.182
273.118
273.493
273.616
273.352
273.13
273.287
273.6
273.542
273.158
273.141
273.564
273.64
273.247
273.105
273.386
273.633
273.487
273.144
273.175
273.578
273.63
273.218
273.112
273.445
273.638
273.43
273.132
273.232
273.609
273.604
273.176
273.113
273.54
273.662
273.333
273.114
273.301
273.628
273.567
273.164
273.137
273.572
273.656
273.264
273.11
273.387
273.647
273.492
273.133
273.181
273.61
273.647
273.187
273.093
273.478
273.664
273.425
273.119
273.225
273.621
273.616
273.168
273.104
273.543
273.671
273.329
273.097
273.306
273.65
273.56
273.131
273.124
273.598
273.678
273.228
273.075
273.39
273.666
273.495
273.111
273.154
273.606
273.654
273.176
273.068
273.468
273.673
273.399
273.077
273.213
273.634
273.612
273.122
273.054
273.547
273.685
273.282
273.042
273.267
273.639
273.55
273.086
273.058
273.561
273.66
273.181
273.009
273.326
273.632
273.437
273.021
273.07
273.565
273.606
273.048
272.943
273.405
273.619
273.248
272.919
273.075
273.536
273.492
272.936
272.864
273.367
273.532
273.062
272.82
272.989
273.399
273.298
272.793
272.747
273.202
273.332
272.793
272.641
272.819
273.164
272.957
272.536
272.52
272.903
272.971
272.391
272.319
272.465
272.756
272.384
272.069
272.079
272.339
272.352
271.703
271.638
271.726
272.017
271.38
271.019
271.054
271.352
271.29
270.208
270.135
270.326
270.784
269.246
268.804
268.921
269.558
268.789
266.925
266.803
267.307
267.805
263.982
263.105
262.494
262.391
259.422
241.091
198.424
65.3341
19.0831
4.78605
1.14753
0.272236
0.0644414
0.0152498
0.00360851
0.000853826
0.000202019
4.77975e-05
1.13088e-05
2.67565e-06
6.33066e-07
1.49797e-07
3.54583e-08
8.40653e-09
2.00549e-09
4.90274e-10
1.3177e-10
4.67537e-11
2.67217e-11
2.15064e-11
2.10942e-11
1.96856e-11
2.09983e-11
2.15099e-11
2.2176e-11
2.26397e-11
2.3249e-11
2.39844e-11
2.29328e-11
2.42526e-11
2.59455e-11
2.59064e-11
2.62066e-11
2.7967e-11
2.58868e-11
2.5894e-11
2.57607e-11
2.54126e-11
2.67768e-11
2.66116e-11
2.58087e-11
2.50751e-11
2.37002e-11
2.36771e-11
2.27658e-11
2.2089e-11
2.32827e-11
2.26201e-11
2.42029e-11
2.21281e-11
2.26059e-11
2.21032e-11
2.12257e-11
2.2002e-11
2.40217e-11
2.23039e-11
2.1581e-11
1.99822e-11
2.08331e-11
1.84794e-11
1.68576e-11
1.78648e-11
1.85096e-11
1.83658e-11
1.9007e-11
1.96447e-11
2.05862e-11
1.85256e-11
1.7133e-11
1.88809e-11
1.93161e-11
1.91243e-11
1.76019e-11
1.73852e-11
1.53424e-11
1.54046e-11
1.67599e-11
1.68807e-11
1.71472e-11
1.87246e-11
1.70299e-11
1.81135e-11
1.94884e-11
2.0286e-11
2.05986e-11
2.089e-11
2.17337e-11
2.32152e-11
2.27338e-11
2.11458e-11
2.27214e-11
2.28635e-11
2.16591e-11
1.94724e-11
1.86446e-11
1.87992e-11
1.79394e-11
1.86269e-11
1.85274e-11
2.01208e-11
1.93054e-11
1.92202e-11
2.00284e-11
2.12541e-11
2.12594e-11
2.06715e-11
1.93445e-11
1.91402e-11
1.95985e-11
1.81331e-11
1.9341e-11
1.90141e-11
2.10036e-11
2.07407e-11
2.19789e-11
2.41105e-11
2.50893e-11
2.49809e-11
2.45546e-11
)
;

boundaryField
{
    sides
    {
        type            calculated;
        value           nonuniform List<scalar> 2(2.38082e-11 5.00482e-11);
    }
    empty
    {
        type            empty;
        value           nonuniform 0();
    }
}


// ************************************************************************* //
