/*--------------------------------*- C++ -*----------------------------------*\
| =========                 |                                                 |
| \\      /  F ield         | OpenFOAM: The Open Source CFD Toolbox           |
|  \\    /   O peration     | Version:  4.1                                   |
|   \\  /    A nd           | Web:      www.OpenFOAM.org                      |
|    \\/     M anipulation  |                                                 |
\*---------------------------------------------------------------------------*/
FoamFile
{
    version     2.0;
    format      ascii;
    class       volScalarField;
    location    "0.007";
    object      T;
}
// * * * * * * * * * * * * * * * * * * * * * * * * * * * * * * * * * * * * * //

dimensions      [0 0 0 1 0 0 0];

internalField   nonuniform List<scalar> 
1000
(
400
400
400
400
400
400
400
400
400
400
400
400
400
400
400
400
400
400
400
400
400
400
400
400
400
400
400
400
400
400
400
400
400
400
400
400
400
400
400
400
400
400
400
400
400
400
400
400
400
400
400
400
400
400
400
400
400
400
400
400
400
400
400
400
400
400
400
400
400
400
400
400
400
400
400
400
400
400
400
400
400
400
400
400
400
400
400
400
400
400
400
400
400
400
400
400
400
400
400
400
400
400
400
400
400
400
400
400
400
400
400
400
400
400
400
400
400
400
400
400
400
400
400
400
400
400
400
400
400
400
400
400
400
400
400
400
400
400
400
400
400
400
400
400
400
400
400
400
400
400
400
400
400
400
400
400
400
400
400
400
400
400
400
400
400
400
400
400
400
400
400
400
400
400
400
400
400
400
400
400
400
400
400
400
400
400
400
400
400
400
400
399.999
399.999
399.999
399.998
399.997
399.995
399.992
399.988
399.983
399.975
399.963
399.948
399.926
399.896
399.856
399.803
399.735
399.648
399.539
399.406
399.245
399.056
398.84
398.6
398.338
398.057
397.758
397.444
397.116
396.775
396.423
396.061
395.69
395.312
394.927
394.536
394.139
393.738
393.333
392.925
392.513
392.098
391.68
391.261
390.839
390.415
389.989
389.562
389.134
388.704
388.273
387.841
387.409
386.975
386.54
386.105
385.669
385.232
384.794
384.357
383.918
383.48
383.04
382.601
382.161
381.721
381.28
380.839
380.398
379.957
379.516
379.074
378.632
378.191
377.749
377.307
376.865
376.423
375.98
375.538
375.096
374.654
374.212
373.769
373.327
372.885
372.443
372.001
371.559
371.118
370.676
370.234
369.793
369.352
368.911
368.47
368.029
367.588
367.148
366.708
366.268
365.828
365.388
364.949
364.51
364.071
363.632
363.194
362.756
362.318
361.881
361.444
361.007
360.57
360.134
359.698
359.262
358.827
358.392
357.958
357.524
357.09
356.657
356.224
355.791
355.359
354.928
354.497
354.066
353.636
353.206
352.777
352.348
351.92
351.492
351.065
350.639
350.213
349.788
349.363
348.939
348.516
348.093
347.671
347.25
346.829
346.409
345.99
345.572
345.155
344.738
344.323
343.908
343.494
343.082
342.67
342.259
341.85
341.442
341.035
340.629
340.224
339.821
339.419
339.019
338.62
338.223
337.827
337.434
337.042
336.652
336.264
335.879
335.495
335.114
334.736
334.359
333.989
333.614
333.256
332.877
332.541
332.149
331.849
331.429
331.177
330.731
330.512
330.075
329.838
329.476
329.161
328.913
328.529
328.332
327.992
327.726
327.517
327.179
327.014
326.753
326.501
326.366
326.099
325.941
325.802
325.58
325.484
325.351
325.192
325.132
325.025
324.921
324.886
324.815
324.752
324.734
324.698
324.664
324.657
324.645
324.63
324.628
324.628
324.627
324.626
324.627
324.629
324.63
324.631
324.634
324.639
324.643
324.646
324.651
324.653
324.655
324.658
324.659
324.66
324.662
324.663
324.663
324.664
324.665
324.665
324.666
324.667
324.668
324.668
324.669
324.67
324.67
324.671
324.672
324.672
324.673
324.674
324.674
324.675
324.676
324.676
324.677
324.678
324.679
324.679
324.68
324.681
324.681
324.682
324.683
324.684
324.685
324.686
324.686
324.687
324.688
324.689
324.689
324.69
324.691
324.692
324.692
324.693
324.694
324.695
324.696
324.697
324.698
324.699
324.699
324.701
324.701
324.702
324.703
324.704
324.705
324.706
324.707
324.708
324.709
324.71
324.711
324.712
324.713
324.714
324.715
324.716
324.717
324.718
324.719
324.72
324.721
324.722
324.723
324.725
324.726
324.726
324.728
324.729
324.73
324.731
324.732
324.734
324.735
324.736
324.737
324.739
324.741
324.742
324.742
324.744
324.746
324.748
324.748
324.75
324.752
324.754
324.755
324.756
324.758
324.76
324.762
324.763
324.764
324.767
324.769
324.77
324.772
324.774
324.777
324.779
324.78
324.781
324.784
324.787
324.789
324.79
324.792
324.795
324.799
324.801
324.803
324.804
324.807
324.811
324.815
324.817
324.818
324.82
324.824
324.829
324.832
324.834
324.836
324.839
324.844
324.849
324.854
324.856
324.858
324.86
324.865
324.871
324.878
324.883
324.886
324.887
324.89
324.896
324.904
324.913
324.919
324.922
324.924
324.927
324.934
324.945
324.956
324.965
324.969
324.971
324.975
324.983
324.997
325.012
325.025
325.032
325.035
325.038
325.046
325.064
325.085
325.105
325.118
325.125
325.129
325.134
325.147
325.177
325.212
325.245
325.272
325.29
325.299
325.304
325.31
325.326
325.376
325.464
325.551
325.626
325.683
325.719
325.735
325.738
325.728
325.665
325.555
325.473
325.435
325.469
326.102
330.087
343.672
363.084
382.577
401.316
418.509
433.62
446.398
456.862
465.147
471.474
476.156
479.57
482.023
483.712
484.816
485.545
486.054
486.395
486.578
486.655
486.722
486.805
486.836
486.806
486.786
486.816
486.847
486.826
486.781
486.785
486.83
486.831
486.778
486.762
486.804
486.825
486.791
486.753
486.767
486.809
486.805
486.752
486.741
486.785
486.802
486.762
486.731
486.756
486.792
486.776
486.726
486.727
486.777
486.784
486.733
486.711
486.746
486.777
486.754
486.708
486.714
486.763
486.766
486.715
486.699
486.74
486.764
486.731
486.693
486.711
486.757
486.75
486.694
486.688
486.74
486.755
486.712
486.681
486.709
486.748
486.735
486.683
486.682
486.734
486.744
486.695
486.672
486.709
486.741
486.715
486.669
486.679
486.732
486.733
486.677
486.662
486.709
486.734
486.699
486.66
486.678
486.726
486.721
486.664
486.657
486.71
486.727
486.681
486.651
486.683
486.725
486.707
486.652
486.654
486.713
486.722
486.668
486.645
486.685
486.72
486.694
486.646
486.655
486.711
486.713
486.654
486.639
486.689
486.716
486.676
486.635
486.658
486.71
486.701
486.64
486.635
486.693
486.711
486.663
486.63
486.662
486.706
486.69
486.633
486.634
486.694
486.704
486.647
486.622
486.667
486.704
486.672
486.622
486.635
486.695
486.696
486.63
486.615
486.669
486.698
486.655
486.611
486.633
486.688
486.68
486.614
486.606
486.667
486.687
486.631
486.596
486.632
486.68
486.655
486.592
486.596
486.663
486.671
486.599
486.574
486.624
486.662
486.619
486.564
486.574
486.637
486.636
486.56
486.543
486.592
486.624
486.573
486.524
486.535
486.588
486.578
486.502
486.491
486.532
486.554
486.488
486.45
486.461
486.502
486.474
486.404
486.394
486.419
486.429
486.346
486.319
486.321
486.348
486.291
486.215
486.203
486.218
486.218
486.092
486.052
486.041
486.062
485.958
485.84
485.805
485.82
485.8
485.551
485.463
485.465
485.515
485.167
484.955
484.947
484.993
484.694
484.194
483.988
483.523
482.759
481.132
475.202
446.484
414.014
403.737
400.912
400.217
400.051
400.012
400.003
400.001
400
400
400
400
400
400
400
400
400
400
400
400
400
400
400
400
400
400
400
400
400
400
400
400
400
400
400
400
400
400
400
400
400
400
400
400
400
400
400
400
400
400
400
400
400
400
400
400
400
400
400
400
400
400
400
400
400
400
400
400
400
400
400
400
400
400
400
400
400
400
400
400
400
400
400
400
400
400
400
400
400
400
400
400
400
400
400
400
400
400
400
400
400
400
400
400
400
400
400
400
400
400
400
400
400
400
400
400
400
400
400
400
400
400
)
;

boundaryField
{
    sides
    {
        type            zeroGradient;
    }
    empty
    {
        type            empty;
    }
}


// ************************************************************************* //
