/*--------------------------------*- C++ -*----------------------------------*\
| =========                 |                                                 |
| \\      /  F ield         | OpenFOAM: The Open Source CFD Toolbox           |
|  \\    /   O peration     | Version:  4.1                                   |
|   \\  /    A nd           | Web:      www.OpenFOAM.org                      |
|    \\/     M anipulation  |                                                 |
\*---------------------------------------------------------------------------*/
FoamFile
{
    version     2.0;
    format      ascii;
    class       volVectorField;
    location    "0.007";
    object      U;
}
// * * * * * * * * * * * * * * * * * * * * * * * * * * * * * * * * * * * * * //

dimensions      [0 1 -1 0 0 0 0];

internalField   nonuniform List<vector> 
1000
(
(-1.44004e-11 0 0)
(-1.29075e-11 0 0)
(-1.51802e-11 0 0)
(-1.34276e-11 0 0)
(-1.3899e-11 0 0)
(-1.32493e-11 0 0)
(-1.22494e-11 0 0)
(-1.30566e-11 0 0)
(-1.33614e-11 0 0)
(-1.60316e-11 0 0)
(-1.33498e-11 0 0)
(-1.29421e-11 0 0)
(-1.09202e-11 0 0)
(-1.25589e-11 0 0)
(-8.04516e-12 0 0)
(-1.0626e-11 0 0)
(-8.48235e-12 0 0)
(-9.14451e-12 0 0)
(-5.02717e-12 0 0)
(-9.15816e-12 0 0)
(-4.97819e-12 0 0)
(-9.26989e-12 0 0)
(-6.43163e-12 0 0)
(-1.04493e-11 0 0)
(-9.47273e-12 0 0)
(-1.36744e-11 0 0)
(-1.18939e-11 0 0)
(-1.36179e-11 0 0)
(-1.37324e-11 0 0)
(-1.4162e-11 0 0)
(-1.44754e-11 0 0)
(-1.52896e-11 0 0)
(-1.66595e-11 0 0)
(-1.49261e-11 0 0)
(-1.78537e-11 0 0)
(-1.60798e-11 0 0)
(-2.00095e-11 0 0)
(-1.6287e-11 0 0)
(-1.86304e-11 0 0)
(-1.53038e-11 0 0)
(-1.83266e-11 0 0)
(-1.52965e-11 0 0)
(-1.49064e-11 0 0)
(-1.01869e-11 0 0)
(-1.27572e-11 0 0)
(-8.27629e-12 0 0)
(-1.06952e-11 0 0)
(-8.78215e-12 0 0)
(-1.18095e-11 0 0)
(-6.61586e-12 0 0)
(-1.03155e-11 0 0)
(-2.71856e-12 0 0)
(-6.35048e-12 0 0)
(-3.26112e-12 0 0)
(-3.36354e-12 0 0)
(-2.71646e-12 0 0)
(-1.36366e-12 0 0)
(-1.55942e-12 0 0)
(6.43311e-14 0 0)
(-4.53364e-12 0 0)
(1.7854e-12 0 0)
(-6.9048e-13 0 0)
(5.00386e-12 0 0)
(3.42502e-12 0 0)
(6.37386e-12 0 0)
(2.45995e-12 0 0)
(6.15096e-12 0 0)
(3.69471e-12 0 0)
(8.24055e-12 0 0)
(4.45935e-12 0 0)
(9.87697e-12 0 0)
(5.15151e-12 0 0)
(5.87655e-12 0 0)
(3.35421e-12 0 0)
(8.80494e-12 0 0)
(3.59083e-12 0 0)
(8.14081e-12 0 0)
(5.47e-12 0 0)
(8.72027e-12 0 0)
(6.55467e-12 0 0)
(7.79033e-12 0 0)
(7.85574e-12 0 0)
(7.48605e-12 0 0)
(1.02784e-11 0 0)
(8.14887e-12 0 0)
(1.17043e-11 0 0)
(8.10205e-12 0 0)
(1.23768e-11 0 0)
(8.13702e-12 0 0)
(1.11771e-11 0 0)
(1.13196e-11 0 0)
(1.60829e-11 0 0)
(1.09697e-11 0 0)
(1.46656e-11 0 0)
(1.05247e-11 0 0)
(1.17451e-11 0 0)
(9.35644e-12 0 0)
(1.1334e-11 0 0)
(1.15892e-11 0 0)
(1.45846e-11 0 0)
(1.35155e-11 0 0)
(1.55406e-11 0 0)
(1.55238e-11 0 0)
(1.33923e-11 0 0)
(1.46542e-11 0 0)
(1.57615e-11 0 0)
(1.30702e-11 0 0)
(1.17975e-11 0 0)
(1.00069e-11 0 0)
(1.14491e-11 0 0)
(1.26995e-11 0 0)
(1.06137e-11 0 0)
(8.89391e-12 0 0)
(5.95919e-12 0 0)
(7.59337e-12 0 0)
(6.30223e-12 0 0)
(8.097e-12 0 0)
(8.4951e-12 0 0)
(1.20067e-11 0 0)
(1.0709e-11 0 0)
(1.20034e-11 0 0)
(1.18115e-11 0 0)
(1.0499e-11 0 0)
(1.17429e-11 0 0)
(1.24836e-11 0 0)
(1.18778e-11 0 0)
(1.32838e-11 0 0)
(1.43798e-11 0 0)
(1.36518e-11 0 0)
(1.70301e-11 0 0)
(1.46915e-11 0 0)
(1.2884e-11 0 0)
(1.22925e-11 0 0)
(1.16068e-11 0 0)
(1.33486e-11 0 0)
(1.36168e-11 0 0)
(1.30406e-11 0 0)
(1.40368e-11 0 0)
(1.29854e-11 0 0)
(1.56624e-11 0 0)
(1.6365e-11 0 0)
(1.62304e-11 0 0)
(1.60932e-11 0 0)
(1.74053e-11 0 0)
(1.79771e-11 0 0)
(1.97349e-11 0 0)
(2.00904e-11 0 0)
(1.83326e-11 0 0)
(1.9557e-11 0 0)
(1.9449e-11 0 0)
(2.05359e-11 0 0)
(2.18503e-11 0 0)
(2.21508e-11 0 0)
(1.90029e-11 0 0)
(2.22472e-11 0 0)
(2.15794e-11 0 0)
(2.00415e-11 0 0)
(1.90933e-11 0 0)
(1.91878e-11 0 0)
(2.63637e-11 0 0)
(3.63346e-11 0 0)
(5.72914e-11 0 0)
(9.71304e-11 0 0)
(1.74238e-10 0 0)
(3.23557e-10 0 0)
(6.11362e-10 0 0)
(1.16232e-09 0 0)
(2.2032e-09 0 0)
(4.15434e-09 0 0)
(7.78909e-09 0 0)
(1.45155e-08 0 0)
(2.68814e-08 0 0)
(4.94653e-08 0 0)
(9.04383e-08 0 0)
(1.64272e-07 0 0)
(2.96423e-07 0 0)
(5.31323e-07 0 0)
(9.45956e-07 0 0)
(1.67265e-06 0 0)
(2.93712e-06 0 0)
(5.12125e-06 0 0)
(8.86585e-06 0 0)
(1.52373e-05 0 0)
(2.59947e-05 0 0)
(4.40152e-05 0 0)
(7.3961e-05 0 0)
(0.000123318 0 0)
(0.000203992 0 0)
(0.000334733 0 0)
(0.00054477 0 0)
(0.000879196 0 0)
(0.00140682 0 0)
(0.00223147 0 0)
(0.00350799 0 0)
(0.00546444 0 0)
(0.00843254 0 0)
(0.0128881 0 0)
(0.0195043 0 0)
(0.0292185 0 0)
(0.043316 0 0)
(0.0635279 0 0)
(0.0921428 0 0)
(0.132125 0 0)
(0.187231 0 0)
(0.2621 0 0)
(0.362306 0 0)
(0.494338 0 0)
(0.665461 0 0)
(0.883449 0 0)
(1.15611 0 0)
(1.49059 0 0)
(1.89236 0 0)
(2.36368 0 0)
(2.90224 0 0)
(3.50208 0 0)
(4.15642 0 0)
(4.85949 0 0)
(5.60653 0 0)
(6.39331 0 0)
(7.21587 0 0)
(8.0705 0 0)
(8.95372 0 0)
(9.86233 0 0)
(10.7934 0 0)
(11.7444 0 0)
(12.713 0 0)
(13.6973 0 0)
(14.6953 0 0)
(15.7057 0 0)
(16.727 0 0)
(17.7582 0 0)
(18.7983 0 0)
(19.8463 0 0)
(20.9015 0 0)
(21.9632 0 0)
(23.0309 0 0)
(24.1041 0 0)
(25.1823 0 0)
(26.265 0 0)
(27.3521 0 0)
(28.443 0 0)
(29.5376 0 0)
(30.6356 0 0)
(31.7367 0 0)
(32.8408 0 0)
(33.9477 0 0)
(35.0572 0 0)
(36.1691 0 0)
(37.2833 0 0)
(38.3996 0 0)
(39.518 0 0)
(40.6383 0 0)
(41.7604 0 0)
(42.8843 0 0)
(44.0098 0 0)
(45.1369 0 0)
(46.2654 0 0)
(47.3953 0 0)
(48.5266 0 0)
(49.6591 0 0)
(50.7929 0 0)
(51.9278 0 0)
(53.0638 0 0)
(54.2008 0 0)
(55.3389 0 0)
(56.4779 0 0)
(57.6178 0 0)
(58.7585 0 0)
(59.9001 0 0)
(61.0424 0 0)
(62.1855 0 0)
(63.3293 0 0)
(64.4738 0 0)
(65.6189 0 0)
(66.7647 0 0)
(67.9109 0 0)
(69.0578 0 0)
(70.2051 0 0)
(71.353 0 0)
(72.5012 0 0)
(73.6499 0 0)
(74.799 0 0)
(75.9485 0 0)
(77.0983 0 0)
(78.2485 0 0)
(79.3989 0 0)
(80.5496 0 0)
(81.7006 0 0)
(82.8517 0 0)
(84.0031 0 0)
(85.1546 0 0)
(86.3063 0 0)
(87.4581 0 0)
(88.6101 0 0)
(89.7621 0 0)
(90.9141 0 0)
(92.0662 0 0)
(93.2183 0 0)
(94.3704 0 0)
(95.5225 0 0)
(96.6745 0 0)
(97.8265 0 0)
(98.9783 0 0)
(100.13 0 0)
(101.282 0 0)
(102.433 0 0)
(103.584 0 0)
(104.735 0 0)
(105.886 0 0)
(107.036 0 0)
(108.186 0 0)
(109.336 0 0)
(110.486 0 0)
(111.635 0 0)
(112.784 0 0)
(113.932 0 0)
(115.08 0 0)
(116.227 0 0)
(117.374 0 0)
(118.52 0 0)
(119.666 0 0)
(120.811 0 0)
(121.956 0 0)
(123.099 0 0)
(124.242 0 0)
(125.385 0 0)
(126.526 0 0)
(127.667 0 0)
(128.806 0 0)
(129.945 0 0)
(131.083 0 0)
(132.22 0 0)
(133.356 0 0)
(134.49 0 0)
(135.624 0 0)
(136.756 0 0)
(137.887 0 0)
(139.016 0 0)
(140.144 0 0)
(141.271 0 0)
(142.396 0 0)
(143.519 0 0)
(144.64 0 0)
(145.76 0 0)
(146.878 0 0)
(147.994 0 0)
(149.107 0 0)
(150.219 0 0)
(151.328 0 0)
(152.435 0 0)
(153.539 0 0)
(154.64 0 0)
(155.738 0 0)
(156.834 0 0)
(157.926 0 0)
(159.015 0 0)
(160.1 0 0)
(161.181 0 0)
(162.259 0 0)
(163.332 0 0)
(164.401 0 0)
(165.466 0 0)
(166.525 0 0)
(167.579 0 0)
(168.627 0 0)
(169.67 0 0)
(170.706 0 0)
(171.735 0 0)
(172.758 0 0)
(173.772 0 0)
(174.779 0 0)
(175.777 0 0)
(176.766 0 0)
(177.746 0 0)
(178.715 0 0)
(179.673 0 0)
(180.619 0 0)
(181.552 0 0)
(182.472 0 0)
(183.378 0 0)
(184.268 0 0)
(185.143 0 0)
(185.999 0 0)
(186.838 0 0)
(187.656 0 0)
(188.454 0 0)
(189.229 0 0)
(189.98 0 0)
(190.707 0 0)
(191.407 0 0)
(192.079 0 0)
(192.722 0 0)
(193.334 0 0)
(193.914 0 0)
(194.461 0 0)
(194.974 0 0)
(195.451 0 0)
(195.893 0 0)
(196.298 0 0)
(196.666 0 0)
(196.998 0 0)
(197.294 0 0)
(197.555 0 0)
(197.782 0 0)
(197.976 0 0)
(198.14 0 0)
(198.277 0 0)
(198.387 0 0)
(198.475 0 0)
(198.543 0 0)
(198.593 0 0)
(198.628 0 0)
(198.652 0 0)
(198.667 0 0)
(198.674 0 0)
(198.676 0 0)
(198.676 0 0)
(198.676 0 0)
(198.676 0 0)
(198.674 0 0)
(198.669 0 0)
(198.661 0 0)
(198.65 0 0)
(198.639 0 0)
(198.629 0 0)
(198.62 0 0)
(198.613 0 0)
(198.607 0 0)
(198.602 0 0)
(198.599 0 0)
(198.596 0 0)
(198.594 0 0)
(198.593 0 0)
(198.592 0 0)
(198.591 0 0)
(198.59 0 0)
(198.59 0 0)
(198.589 0 0)
(198.589 0 0)
(198.588 0 0)
(198.587 0 0)
(198.587 0 0)
(198.586 0 0)
(198.585 0 0)
(198.585 0 0)
(198.584 0 0)
(198.584 0 0)
(198.583 0 0)
(198.583 0 0)
(198.582 0 0)
(198.581 0 0)
(198.581 0 0)
(198.58 0 0)
(198.58 0 0)
(198.579 0 0)
(198.579 0 0)
(198.578 0 0)
(198.578 0 0)
(198.577 0 0)
(198.576 0 0)
(198.576 0 0)
(198.575 0 0)
(198.575 0 0)
(198.575 0 0)
(198.574 0 0)
(198.574 0 0)
(198.573 0 0)
(198.573 0 0)
(198.572 0 0)
(198.572 0 0)
(198.571 0 0)
(198.571 0 0)
(198.57 0 0)
(198.57 0 0)
(198.569 0 0)
(198.569 0 0)
(198.568 0 0)
(198.568 0 0)
(198.567 0 0)
(198.567 0 0)
(198.566 0 0)
(198.566 0 0)
(198.565 0 0)
(198.565 0 0)
(198.564 0 0)
(198.564 0 0)
(198.563 0 0)
(198.563 0 0)
(198.563 0 0)
(198.562 0 0)
(198.562 0 0)
(198.561 0 0)
(198.561 0 0)
(198.561 0 0)
(198.56 0 0)
(198.56 0 0)
(198.56 0 0)
(198.559 0 0)
(198.559 0 0)
(198.559 0 0)
(198.558 0 0)
(198.558 0 0)
(198.558 0 0)
(198.558 0 0)
(198.557 0 0)
(198.557 0 0)
(198.557 0 0)
(198.557 0 0)
(198.557 0 0)
(198.556 0 0)
(198.556 0 0)
(198.556 0 0)
(198.556 0 0)
(198.556 0 0)
(198.556 0 0)
(198.555 0 0)
(198.555 0 0)
(198.555 0 0)
(198.555 0 0)
(198.555 0 0)
(198.555 0 0)
(198.555 0 0)
(198.554 0 0)
(198.554 0 0)
(198.554 0 0)
(198.554 0 0)
(198.554 0 0)
(198.553 0 0)
(198.553 0 0)
(198.553 0 0)
(198.553 0 0)
(198.553 0 0)
(198.552 0 0)
(198.552 0 0)
(198.552 0 0)
(198.552 0 0)
(198.552 0 0)
(198.551 0 0)
(198.551 0 0)
(198.551 0 0)
(198.551 0 0)
(198.551 0 0)
(198.55 0 0)
(198.55 0 0)
(198.55 0 0)
(198.55 0 0)
(198.55 0 0)
(198.549 0 0)
(198.549 0 0)
(198.549 0 0)
(198.549 0 0)
(198.549 0 0)
(198.549 0 0)
(198.549 0 0)
(198.548 0 0)
(198.548 0 0)
(198.548 0 0)
(198.548 0 0)
(198.548 0 0)
(198.548 0 0)
(198.548 0 0)
(198.547 0 0)
(198.547 0 0)
(198.547 0 0)
(198.547 0 0)
(198.547 0 0)
(198.547 0 0)
(198.547 0 0)
(198.547 0 0)
(198.546 0 0)
(198.546 0 0)
(198.546 0 0)
(198.546 0 0)
(198.546 0 0)
(198.546 0 0)
(198.545 0 0)
(198.545 0 0)
(198.545 0 0)
(198.545 0 0)
(198.545 0 0)
(198.545 0 0)
(198.545 0 0)
(198.544 0 0)
(198.544 0 0)
(198.544 0 0)
(198.544 0 0)
(198.544 0 0)
(198.544 0 0)
(198.543 0 0)
(198.543 0 0)
(198.543 0 0)
(198.543 0 0)
(198.543 0 0)
(198.543 0 0)
(198.543 0 0)
(198.542 0 0)
(198.542 0 0)
(198.542 0 0)
(198.542 0 0)
(198.542 0 0)
(198.541 0 0)
(198.541 0 0)
(198.541 0 0)
(198.541 0 0)
(198.541 0 0)
(198.541 0 0)
(198.541 0 0)
(198.541 0 0)
(198.541 0 0)
(198.541 0 0)
(198.54 0 0)
(198.54 0 0)
(198.54 0 0)
(198.54 0 0)
(198.54 0 0)
(198.54 0 0)
(198.539 0 0)
(198.54 0 0)
(198.54 0 0)
(198.54 0 0)
(198.54 0 0)
(198.539 0 0)
(198.539 0 0)
(198.538 0 0)
(198.538 0 0)
(198.538 0 0)
(198.537 0 0)
(198.536 0 0)
(198.535 0 0)
(198.539 0 0)
(198.546 0 0)
(198.558 0 0)
(198.586 0 0)
(198.66 0 0)
(198.795 0 0)
(198.811 0 0)
(198.669 0 0)
(198.556 0 0)
(198.509 0 0)
(198.5 0 0)
(198.491 0 0)
(198.483 0 0)
(198.499 0 0)
(198.528 0 0)
(198.535 0 0)
(198.519 0 0)
(198.516 0 0)
(198.539 0 0)
(198.554 0 0)
(198.535 0 0)
(198.514 0 0)
(198.528 0 0)
(198.555 0 0)
(198.549 0 0)
(198.521 0 0)
(198.518 0 0)
(198.547 0 0)
(198.56 0 0)
(198.534 0 0)
(198.513 0 0)
(198.531 0 0)
(198.557 0 0)
(198.543 0 0)
(198.511 0 0)
(198.515 0 0)
(198.546 0 0)
(198.55 0 0)
(198.519 0 0)
(198.505 0 0)
(198.532 0 0)
(198.555 0 0)
(198.534 0 0)
(198.505 0 0)
(198.516 0 0)
(198.548 0 0)
(198.547 0 0)
(198.515 0 0)
(198.506 0 0)
(198.534 0 0)
(198.552 0 0)
(198.528 0 0)
(198.503 0 0)
(198.521 0 0)
(198.55 0 0)
(198.54 0 0)
(198.508 0 0)
(198.509 0 0)
(198.541 0 0)
(198.551 0 0)
(198.521 0 0)
(198.5 0 0)
(198.525 0 0)
(198.553 0 0)
(198.537 0 0)
(198.505 0 0)
(198.51 0 0)
(198.542 0 0)
(198.548 0 0)
(198.517 0 0)
(198.502 0 0)
(198.529 0 0)
(198.552 0 0)
(198.53 0 0)
(198.501 0 0)
(198.515 0 0)
(198.548 0 0)
(198.544 0 0)
(198.509 0 0)
(198.503 0 0)
(198.535 0 0)
(198.552 0 0)
(198.525 0 0)
(198.498 0 0)
(198.517 0 0)
(198.549 0 0)
(198.54 0 0)
(198.506 0 0)
(198.504 0 0)
(198.537 0 0)
(198.549 0 0)
(198.519 0 0)
(198.497 0 0)
(198.522 0 0)
(198.55 0 0)
(198.533 0 0)
(198.499 0 0)
(198.507 0 0)
(198.542 0 0)
(198.545 0 0)
(198.511 0 0)
(198.496 0 0)
(198.526 0 0)
(198.55 0 0)
(198.527 0 0)
(198.496 0 0)
(198.509 0 0)
(198.543 0 0)
(198.54 0 0)
(198.505 0 0)
(198.497 0 0)
(198.53 0 0)
(198.548 0 0)
(198.519 0 0)
(198.492 0 0)
(198.514 0 0)
(198.547 0 0)
(198.534 0 0)
(198.497 0 0)
(198.498 0 0)
(198.534 0 0)
(198.545 0 0)
(198.512 0 0)
(198.489 0 0)
(198.515 0 0)
(198.545 0 0)
(198.527 0 0)
(198.492 0 0)
(198.499 0 0)
(198.536 0 0)
(198.539 0 0)
(198.503 0 0)
(198.487 0 0)
(198.519 0 0)
(198.544 0 0)
(198.517 0 0)
(198.484 0 0)
(198.501 0 0)
(198.538 0 0)
(198.532 0 0)
(198.492 0 0)
(198.485 0 0)
(198.521 0 0)
(198.54 0 0)
(198.508 0 0)
(198.479 0 0)
(198.5 0 0)
(198.535 0 0)
(198.522 0 0)
(198.483 0 0)
(198.483 0 0)
(198.52 0 0)
(198.531 0 0)
(198.494 0 0)
(198.47 0 0)
(198.499 0 0)
(198.53 0 0)
(198.507 0 0)
(198.468 0 0)
(198.477 0 0)
(198.516 0 0)
(198.517 0 0)
(198.475 0 0)
(198.458 0 0)
(198.491 0 0)
(198.517 0 0)
(198.487 0 0)
(198.449 0 0)
(198.463 0 0)
(198.501 0 0)
(198.493 0 0)
(198.449 0 0)
(198.437 0 0)
(198.473 0 0)
(198.49 0 0)
(198.452 0 0)
(198.417 0 0)
(198.438 0 0)
(198.472 0 0)
(198.451 0 0)
(198.402 0 0)
(198.4 0 0)
(198.438 0 0)
(198.441 0 0)
(198.392 0 0)
(198.36 0 0)
(198.387 0 0)
(198.414 0 0)
(198.379 0 0)
(198.326 0 0)
(198.327 0 0)
(198.361 0 0)
(198.352 0 0)
(198.297 0 0)
(198.265 0 0)
(198.286 0 0)
(198.301 0 0)
(198.256 0 0)
(198.201 0 0)
(198.196 0 0)
(198.217 0 0)
(198.193 0 0)
(198.129 0 0)
(198.094 0 0)
(198.103 0 0)
(198.099 0 0)
(198.038 0 0)
(197.976 0 0)
(197.961 0 0)
(197.961 0 0)
(197.913 0 0)
(197.836 0 0)
(197.79 0 0)
(197.777 0 0)
(197.741 0 0)
(197.656 0 0)
(197.578 0 0)
(197.538 0 0)
(197.503 0 0)
(197.415 0 0)
(197.301 0 0)
(197.22 0 0)
(197.167 0 0)
(197.082 0 0)
(196.934 0 0)
(196.798 0 0)
(196.711 0 0)
(196.623 0 0)
(196.448 0 0)
(196.236 0 0)
(196.084 0 0)
(195.97 0 0)
(195.772 0 0)
(195.463 0 0)
(195.194 0 0)
(195.015 0 0)
(194.8 0 0)
(194.381 0 0)
(193.926 0 0)
(193.614 0 0)
(193.289 0 0)
(192.649 0 0)
(191.835 0 0)
(191.009 0 0)
(189.72 0 0)
(187.138 0 0)
(180.791 0 0)
(161.051 0 0)
(104.963 0 0)
(37.4961 0 0)
(9.93771 0 0)
(2.43986 0 0)
(0.582692 0 0)
(0.138126 0 0)
(0.0326968 0 0)
(0.00773752 0 0)
(0.00183087 0 0)
(0.000433197 0 0)
(0.000102495 0 0)
(2.42502e-05 0 0)
(5.73755e-06 0 0)
(1.35751e-06 0 0)
(3.21201e-07 0 0)
(7.60154e-08 0 0)
(1.80062e-08 0 0)
(4.2814e-09 0 0)
(1.03287e-09 0 0)
(2.63257e-10 0 0)
(8.22616e-11 0 0)
(3.76562e-11 0 0)
(2.75376e-11 0 0)
(2.42806e-11 0 0)
(2.30074e-11 0 0)
(2.32382e-11 0 0)
(2.49608e-11 0 0)
(2.41876e-11 0 0)
(2.65402e-11 0 0)
(2.56297e-11 0 0)
(2.79921e-11 0 0)
(2.62555e-11 0 0)
(2.75682e-11 0 0)
(2.89367e-11 0 0)
(3.03958e-11 0 0)
(2.9142e-11 0 0)
(3.14044e-11 0 0)
(3.19457e-11 0 0)
(2.85694e-11 0 0)
(3.03281e-11 0 0)
(2.93999e-11 0 0)
(2.99841e-11 0 0)
(3.08066e-11 0 0)
(3.02444e-11 0 0)
(2.91037e-11 0 0)
(2.85764e-11 0 0)
(2.66028e-11 0 0)
(2.71881e-11 0 0)
(2.4439e-11 0 0)
(2.73817e-11 0 0)
(2.52795e-11 0 0)
(2.84033e-11 0 0)
(2.56089e-11 0 0)
(2.61877e-11 0 0)
(2.52924e-11 0 0)
(2.51914e-11 0 0)
(2.4036e-11 0 0)
(2.72576e-11 0 0)
(2.68785e-11 0 0)
(2.55297e-11 0 0)
(2.33713e-11 0 0)
(2.38086e-11 0 0)
(2.29394e-11 0 0)
(1.9532e-11 0 0)
(1.98493e-11 0 0)
(2.11586e-11 0 0)
(2.08063e-11 0 0)
(2.18948e-11 0 0)
(2.17352e-11 0 0)
(2.41897e-11 0 0)
(2.20834e-11 0 0)
(2.08906e-11 0 0)
(1.95864e-11 0 0)
(2.30753e-11 0 0)
(2.19881e-11 0 0)
(2.10565e-11 0 0)
(2.03091e-11 0 0)
(1.88268e-11 0 0)
(1.73215e-11 0 0)
(1.82948e-11 0 0)
(1.9716e-11 0 0)
(1.88216e-11 0 0)
(2.15114e-11 0 0)
(2.03507e-11 0 0)
(2.00844e-11 0 0)
(2.10257e-11 0 0)
(2.32985e-11 0 0)
(2.35008e-11 0 0)
(2.39786e-11 0 0)
(2.42577e-11 0 0)
(2.64303e-11 0 0)
(2.59041e-11 0 0)
(2.5777e-11 0 0)
(2.45559e-11 0 0)
(2.67864e-11 0 0)
(2.56597e-11 0 0)
(2.36955e-11 0 0)
(2.11162e-11 0 0)
(2.23509e-11 0 0)
(2.07314e-11 0 0)
(2.0912e-11 0 0)
(2.12815e-11 0 0)
(2.20991e-11 0 0)
(2.30274e-11 0 0)
(2.21697e-11 0 0)
(2.21351e-11 0 0)
(2.35159e-11 0 0)
(2.52955e-11 0 0)
(2.38927e-11 0 0)
(2.32792e-11 0 0)
(2.12727e-11 0 0)
(2.36001e-11 0 0)
(2.07198e-11 0 0)
(2.19171e-11 0 0)
(2.13678e-11 0 0)
(2.37852e-11 0 0)
(2.31279e-11 0 0)
(2.54325e-11 0 0)
(2.50012e-11 0 0)
(3.02152e-11 0 0)
(2.79135e-11 0 0)
(2.94141e-11 0 0)
(2.73999e-11 0 0)
)
;

boundaryField
{
    sides
    {
        type            zeroGradient;
    }
    empty
    {
        type            empty;
    }
}


// ************************************************************************* //
