/*--------------------------------*- C++ -*----------------------------------*\
| =========                 |                                                 |
| \\      /  F ield         | OpenFOAM: The Open Source CFD Toolbox           |
|  \\    /   O peration     | Version:  4.1                                   |
|   \\  /    A nd           | Web:      www.OpenFOAM.org                      |
|    \\/     M anipulation  |                                                 |
\*---------------------------------------------------------------------------*/
FoamFile
{
    version     2.0;
    format      ascii;
    class       volScalarField;
    location    "0.0032";
    object      p;
}
// * * * * * * * * * * * * * * * * * * * * * * * * * * * * * * * * * * * * * //

dimensions      [1 -1 -2 0 0 0 0];

internalField   nonuniform List<scalar> 
1000
(
100000
100000
100000
100000
100000
100000
100000
100000
100000
100000
100000
100000
100000
100000
100000
100000
100000
100000
100000
100000
100000
100000
100000
100000
100000
100000
100000
100000
100000
100000
100000
100000
100000
100000
100000
100000
100000
100000
100000
100000
100000
100000
100000
100000
100000
100000
100000
100000
100000
100000
100000
100000
100000
100000
100000
100000
100000
100000
100000
100000
100000
100000
100000
100000
100000
100000
100000
100000
100000
100000
100000
100000
100000
100000
100000
100000
100000
100000
100000
100000
100000
100000
100000
100000
100000
100000
100000
100000
100000
100000
100000
100000
100000
100000
100000
100000
100000
100000
100000
100000
100000
100000
100000
100000
100000
100000
100000
100000
100000
100000
100000
100000
100000
100000
100000
100000
100000
100000
100000
100000
100000
100000
100000
100000
100000
100000
100000
100000
100000
100000
100000
100000
100000
100000
100000
100000
100000
100000
100000
100000
100000
100000
100000
100000
100000
100000
100000
100000
100000
100000
100000
100000
100000
100000
100000
100000
100000
100000
100000
100000
100000
100000
100000
100000
100000
100000
100000
100000
100000
100000
100000
100000
100000
100000
100000
100000
100000
100000
100000
100000
100000
100000
100000
100000
100000
100000
100000
100000
100000
100000
100000
100000
100000
100000
100000
100000
100000
100000
100000
100000
100000
100000
100000
100000
100000
100000
100000
100000
100000
100000
100000
100000
100000
100000
100000
100000
100000
100000
100000
100000
100000
100000
100000
100000
100000
100000
100000
100000
100000
100000
100000
100000
100000
100000
100000
100000
100000
100000
100000
100000
100000
100000
100000
100000
100000
100000
100000
100000
100000
100000
100000
100000
100000
100000
100000
100000
100000
100000
100000
100000
100000
100000
100000
100000
100000
100000
100000
100000
100000
100000
100000
100000
100000
100000
100000
100000
100000
100000
100000
100000
100000
100000
100000
100000
100000
100000
100000
100000
100000
100000
100000
100000
100000
100000
100000
100000
100000
100000
100000
100000
100000
100000
100000
100000
100000
100000
100000
100000
100000
100000
100000
100000
100000
100000
100000
100000
100000
100000
100000
100000
100000
100000
100000
100000
100000
100000
100000
100000
100000
100000
100000
100000
100000
100000
100000
100000
100000
100000
100000
100000
100000
100000
100000
100000
100000
100000
100000
99999.9
99999.8
99999.7
99999.4
99998.9
99997.9
99996.4
99993.7
99989.1
99981.6
99969.4
99950.1
99920.2
99874.7
99807.3
99709.8
99572.9
99386
99139.4
98826.2
98447.7
98012.2
97527.2
96998.1
96430.4
95829.3
95200.4
94548.7
93878.5
93193.8
92497.6
91792.8
91081.6
90365.6
89646.4
88925.3
88203.2
87480.9
86759.3
86038.7
85319.8
84603
83888.7
83177.1
82468.5
81763.2
81061.4
80363.2
79668.9
78978.5
78292.3
77610.3
76932.6
76259.3
75590.6
74926.4
74267
73612.3
72962.4
72317.4
71677.3
71042.2
70412.2
69787.3
69167.6
68553.1
67943.8
67340
66741.5
66148.5
65561
64979.1
64402.8
63832.4
63267.7
62709
62156.2
61609.6
61069.2
60535.1
60007.6
59486.6
58972.4
58465.1
57965
57472.2
56987
56509.6
56040.2
55579.2
55126.9
54683.7
54249.9
53826.1
53412.5
53010
52618.5
52239.7
51872.7
51520.2
51180.8
50857.1
50548.8
50256.9
49982.9
49726.8
49489.8
49272.8
49076.1
48900.1
48745.2
48611
48497.3
48403.2
48327.5
48268.7
48225.1
48194.5
48173.8
48162.4
48156.8
48155.7
48155.8
48156.1
48156.8
48158.4
48162
48167.2
48173.4
48179.2
48184
48187.6
48190.1
48191.9
48192.9
48193.5
48193.8
48194
48194.1
48194.3
48194.5
48194.7
48195
48195.2
48195.4
48195.5
48195.6
48195.7
48195.7
48195.8
48195.8
48195.9
48195.8
48195.9
48196.4
48196.5
48196.6
48196.7
48196.8
48196.9
48197
48197
48197.1
48197.2
48197.2
48197.3
48197.4
48197.6
48197.6
48197.2
48197.1
48197.6
48197.8
48197.8
48197.8
48197.9
48197.9
48197.9
48198
48198.2
48198.3
48197.8
48197.4
48198
48198.7
48198.7
48197.9
48197.7
48198.2
48198.5
48198.6
48198.6
48198.6
48198.6
48198.7
48199.2
48199.5
48199.6
48198.6
48198.3
48198.9
48199.2
48199.2
48199.2
48199.2
48199.1
48199.1
48199.3
48200.2
48200.6
48199.7
48199.8
48204.1
48220.7
48177.8
48189.2
48203.9
48203.4
48192
48194.2
48207.2
48208.6
48194.5
48189.7
48201.9
48210.5
48201.7
48188.5
48192.5
48209.9
48209.9
48191.8
48187.2
48202.9
48211.6
48200.7
48187.1
48193
48210
48209.2
48190.3
48186.9
48203.6
48211.6
48198.9
48186
48193.4
48210
48207.9
48188.7
48186.3
48204.4
48211.2
48195.6
48183.9
48194
48210.1
48206.4
48186.3
48184.6
48203
48209.6
48193.4
48181.7
48191.8
48207.5
48202.1
48182
48181.3
48200.6
48205.7
48186.4
48175.9
48187.6
48202.4
48193.5
48173.1
48173.5
48193
48196.2
48173.4
48164.1
48176.4
48189.8
48176.8
48156.5
48156.5
48173.6
48175
48149
48140.3
48148
48160.1
48142.4
48122.8
48120.9
48132.4
48130.3
48098.6
48089.9
48090.6
48099
48072.7
48044.6
48038
48041.1
48039.7
47985.7
47963.3
47957.2
47965.7
47917.3
47852
47834.7
47838.1
47823.9
47698.4
47653.7
47640.4
47642.7
47485.2
47246.1
47027.6
46542.5
45298
40915
30195.1
26496.6
25374
25089.7
25021.2
25005
25001.2
25000.3
25000.1
25000
25000
25000
25000
25000
25000
25000
25000
25000
25000
25000
25000
25000
25000
25000
25000
25000
25000
25000
25000
25000
25000
25000
25000
25000
25000
25000
25000
25000
25000
25000
25000
25000
25000
25000
25000
25000
25000
25000
25000
25000
25000
25000
25000
25000
25000
25000
25000
25000
25000
25000
25000
25000
25000
25000
25000
25000
25000
25000
25000
25000
25000
25000
25000
25000
25000
25000
25000
25000
25000
25000
25000
25000
25000
25000
25000
25000
25000
25000
25000
25000
25000
25000
25000
25000
25000
25000
25000
25000
25000
25000
25000
25000
25000
25000
25000
25000
25000
25000
25000
25000
25000
25000
25000
25000
25000
25000
25000
25000
25000
25000
25000
25000
25000
25000
25000
25000
25000
25000
25000
25000
25000
25000
25000
25000
25000
25000
25000
25000
25000
25000
25000
25000
25000
25000
25000
25000
25000
25000
25000
25000
25000
25000
25000
25000
25000
25000
25000
25000
25000
25000
25000
25000
25000
25000
25000
25000
25000
25000
25000
25000
25000
25000
25000
25000
25000
25000
25000
25000
25000
25000
25000
25000
25000
25000
25000
25000
25000
25000
25000
25000
25000
25000
25000
25000
25000
25000
25000
25000
25000
25000
25000
25000
25000
25000
25000
25000
25000
25000
25000
25000
25000
25000
25000
25000
25000
25000
25000
25000
25000
25000
25000
25000
25000
25000
25000
25000
25000
25000
25000
25000
25000
25000
25000
25000
25000
25000
25000
25000
25000
25000
25000
25000
25000
25000
25000
25000
25000
25000
25000
25000
25000
25000
25000
25000
25000
25000
25000
25000
25000
25000
25000
25000
25000
25000
25000
25000
25000
25000
25000
25000
25000
25000
25000
25000
25000
25000
25000
25000
25000
25000
25000
25000
25000
25000
25000
25000
25000
25000
25000
25000
25000
25000
25000
25000
25000
25000
25000
25000
25000
25000
25000
25000
25000
25000
25000
25000
25000
25000
25000
25000
25000
25000
25000
25000
25000
25000
25000
25000
25000
25000
25000
25000
25000
25000
25000
25000
25000
)
;

boundaryField
{
    sides
    {
        type            zeroGradient;
    }
    empty
    {
        type            empty;
    }
}


// ************************************************************************* //
