/*--------------------------------*- C++ -*----------------------------------*\
| =========                 |                                                 |
| \\      /  F ield         | OpenFOAM: The Open Source CFD Toolbox           |
|  \\    /   O peration     | Version:  4.1                                   |
|   \\  /    A nd           | Web:      www.OpenFOAM.org                      |
|    \\/     M anipulation  |                                                 |
\*---------------------------------------------------------------------------*/
FoamFile
{
    version     2.0;
    format      ascii;
    class       surfaceScalarField;
    location    "0.0032";
    object      phi;
}
// * * * * * * * * * * * * * * * * * * * * * * * * * * * * * * * * * * * * * //

dimensions      [1 0 -1 0 0 0 0];

internalField   nonuniform List<scalar> 
999
(
-4.93259e-11
-5.15854e-11
-5.07541e-11
-5.01288e-11
-4.92193e-11
-5.7419e-11
-5.89893e-11
-5.69003e-11
-5.71703e-11
-5.02851e-11
-4.69313e-11
-4.74714e-11
-4.5759e-11
-4.91838e-11
-4.87361e-11
-4.99796e-11
-5.63674e-11
-5.641e-11
-5.15357e-11
-5.47189e-11
-5.04414e-11
-4.94893e-11
-5.18057e-11
-5.06404e-11
-4.93401e-11
-5.44986e-11
-4.76632e-11
-5.50813e-11
-5.41931e-11
-5.21467e-11
-5.48042e-11
-5.78524e-11
-5.48326e-11
-5.09246e-11
-5.13865e-11
-4.93756e-11
-4.80966e-11
-4.86224e-11
-5.23812e-11
-4.45795e-11
-5.12443e-11
-4.54463e-11
-3.84333e-11
-3.2081e-11
-2.57572e-11
-1.94404e-11
-1.7657e-11
-1.49853e-11
-1.51843e-11
-1.4019e-11
-8.55493e-12
-7.41096e-12
-1.13687e-12
6.97753e-12
1.45661e-12
-2.94165e-12
-7.61702e-12
-6.74305e-12
-6.38778e-12
-7.68097e-12
-8.19966e-12
-1.47082e-11
-1.96465e-11
-1.30456e-11
-4.59721e-12
-1.79767e-12
-5.68434e-13
1.1795e-12
8.10019e-12
1.59588e-11
1.53406e-11
9.20153e-12
3.59535e-12
5.03775e-12
1.59872e-12
-1.15108e-12
3.20455e-12
2.27374e-13
-1.63425e-12
2.16005e-12
3.04823e-12
4.63984e-12
9.02389e-12
1.23563e-11
1.99023e-11
2.61196e-11
2.59632e-11
2.17355e-11
2.41513e-11
2.91323e-11
2.5608e-11
2.46558e-11
3.12994e-11
2.31637e-11
2.25313e-11
2.82512e-11
2.55511e-11
2.50893e-11
2.18208e-11
2.81872e-11
2.72919e-11
3.28413e-11
2.79243e-11
2.87557e-11
2.86704e-11
2.22613e-11
1.77707e-11
1.04023e-11
1.1589e-11
1.75362e-11
1.4559e-11
1.50351e-11
1.8737e-11
1.49925e-11
1.90141e-11
2.07905e-11
2.33342e-11
1.81473e-11
2.1295e-11
2.50253e-11
2.81446e-11
2.52882e-11
2.83507e-11
2.56506e-11
2.73133e-11
2.0556e-11
1.70246e-11
1.16174e-11
1.19016e-11
1.45448e-11
1.32516e-11
1.82467e-11
1.09139e-11
1.22498e-11
1.90425e-11
1.6172e-11
1.46088e-11
8.13571e-12
8.2494e-12
1.12124e-11
1.22142e-11
1.02887e-11
1.2129e-11
1.07008e-11
1.38343e-11
1.95541e-11
1.64846e-11
1.46869e-11
1.30171e-11
1.65059e-11
1.49214e-11
1.44098e-11
1.30598e-11
1.27116e-11
1.48503e-11
9.02389e-12
1.16174e-11
1.78701e-11
2.43574e-11
2.58922e-11
2.81588e-11
2.71285e-11
2.16431e-11
1.71099e-11
1.3884e-11
1.0246e-11
1.48077e-11
2.0222e-11
1.66125e-11
2.15934e-11
2.8642e-11
3.13705e-11
3.11431e-11
2.99849e-11
2.89972e-11
2.80664e-11
2.54587e-11
3.00062e-11
2.97433e-11
2.86846e-11
2.23395e-11
2.50822e-11
2.23039e-11
2.14868e-11
2.44356e-11
2.14584e-11
1.52838e-11
1.42961e-11
9.74154e-12
1.11484e-11
5.47118e-12
7.21201e-12
2.97007e-12
2.72138e-12
6.18172e-12
1.00968e-11
1.37064e-11
1.32516e-11
1.60512e-11
2.0286e-11
2.09965e-11
2.30571e-11
2.65317e-11
3.33387e-11
3.06883e-11
2.31211e-11
2.224e-11
2.09468e-11
2.53948e-11
3.12639e-11
2.94662e-11
2.79812e-11
3.04752e-11
2.6553e-11
3.19105e-11
2.59988e-11
2.1231e-11
2.0826e-11
2.51603e-11
2.46274e-11
2.062e-11
2.35403e-11
2.76899e-11
2.76259e-11
2.08829e-11
1.60725e-11
9.66338e-12
2.20695e-11
2.12452e-11
2.05773e-11
1.95612e-11
2.78746e-11
2.11813e-11
1.6712e-11
1.61364e-11
1.33369e-11
9.00258e-12
4.72511e-12
8.86047e-12
1.1191e-11
1.08855e-11
1.11839e-11
7.05569e-12
7.37543e-12
8.35598e-12
1.02744e-11
9.11626e-12
4.83169e-12
9.28679e-12
1.64135e-11
1.54259e-11
1.00258e-11
9.24416e-12
5.07328e-12
6.71463e-12
1.77636e-13
1.98952e-13
6.60094e-12
1.23705e-11
1.41682e-11
1.19371e-11
1.03384e-11
1.14824e-11
1.68185e-11
1.63496e-11
1.36708e-11
8.78941e-12
6.52278e-12
7.15517e-12
3.01981e-12
-1.49214e-12
-2.20268e-12
1.06581e-13
1.69109e-12
7.04858e-12
9.07363e-12
6.71463e-12
1.12337e-11
1.36353e-11
1.39408e-11
1.30456e-11
1.18732e-11
1.73799e-11
1.80833e-11
2.75406e-11
2.85141e-11
2.70646e-11
2.50679e-11
2.06839e-11
2.03428e-11
1.61933e-11
1.9682e-11
2.36682e-11
1.8872e-11
1.65414e-11
1.28608e-11
1.20011e-11
2.11031e-11
2.6489e-11
3.28768e-11
3.28697e-11
2.56719e-11
1.78559e-11
1.6442e-11
1.80336e-11
1.22071e-11
1.87157e-11
2.35829e-11
2.07905e-11
1.79625e-11
2.305e-11
2.68585e-11
3.29266e-11
3.35731e-11
2.79883e-11
2.43645e-11
1.72662e-11
1.69962e-11
1.73372e-11
1.19158e-11
4.583e-12
1.03952e-11
9.85523e-12
1.03242e-11
2.5878e-11
5.78098e-11
1.43018e-10
3.48962e-10
8.28024e-10
1.94314e-09
4.50049e-09
1.0296e-08
2.33137e-08
5.22496e-08
1.15897e-07
2.54415e-07
5.52685e-07
1.18801e-06
2.52639e-06
5.31428e-06
1.10552e-05
2.27392e-05
4.62355e-05
9.29103e-05
0.000184472
0.000361796
0.000700708
0.00133974
0.00252801
0.00470608
0.00863976
0.0156362
0.0278846
0.0489773
0.0846838
0.144059
0.240961
0.396034
0.639114
1.0119
1.57046
2.38692
3.54915
5.15692
7.31257
10.1027
13.5614
17.6245
22.1979
27.2163
32.6245
38.365
44.3805
50.6167
57.0246
63.5616
70.1915
76.8843
83.6153
90.3642
97.1146
103.853
110.569
117.252
123.896
130.494
137.042
143.534
149.967
156.338
162.645
168.885
175.057
181.158
187.187
193.144
199.027
204.835
210.568
216.226
221.806
227.31
232.738
238.087
243.359
248.554
253.67
258.709
263.67
268.553
273.358
278.085
282.734
287.305
291.799
296.214
300.553
304.813
308.996
313.102
317.13
321.08
324.954
328.75
332.468
336.109
339.672
343.157
346.564
349.893
353.144
356.315
359.408
362.42
365.352
368.203
370.973
373.657
376.264
378.774
381.218
383.543
385.824
387.957
390.053
392.024
393.876
395.714
397.317
398.962
400.401
401.727
403.059
404.117
405.164
406.129
406.849
407.58
408.195
408.617
409.03
409.363
409.553
409.71
409.848
409.903
409.91
409.928
409.93
409.924
409.906
409.891
409.888
409.865
409.826
409.794
409.772
409.749
409.731
409.722
409.713
409.703
409.697
409.693
409.686
409.678
409.673
409.67
409.666
409.66
409.655
409.651
409.643
409.635
409.63
409.623
409.614
409.606
409.598
409.586
409.592
409.59
409.584
409.576
409.569
409.562
409.553
409.545
409.539
409.529
409.519
409.511
409.504
409.494
409.483
409.466
409.444
409.441
409.436
409.423
409.414
409.405
409.389
409.37
409.355
409.347
409.34
409.321
409.276
409.253
409.264
409.257
409.226
409.196
409.165
409.141
409.109
409.09
409.078
409.06
409.028
408.977
408.924
408.887
408.847
408.803
408.78
408.734
408.58
408.426
408.314
408.258
408.242
408.257
408.415
408.633
408.775
408.847
408.312
403.324
383.899
356.88
334.72
316.595
302.531
292.329
285.565
280.941
277.707
275.543
274.47
274.149
273.806
273.223
273.062
273.41
273.537
273.26
273.005
273.141
273.509
273.504
273.068
273.013
273.445
273.561
273.254
273.021
273.19
273.538
273.494
273.058
273.021
273.476
273.582
273.214
273.006
273.228
273.562
273.469
273.032
273.017
273.503
273.598
273.167
272.986
273.238
273.564
273.45
273.015
273.007
273.49
273.582
273.105
272.945
273.242
273.548
273.376
272.953
272.977
273.466
273.536
272.983
272.856
273.208
273.499
273.221
272.825
272.872
273.349
273.39
272.803
272.708
273.018
273.311
272.959
272.609
272.64
273.066
273.073
272.463
272.383
272.588
272.886
272.386
272.097
272.124
272.418
272.432
271.639
271.567
271.656
272.028
271.356
270.717
270.739
271.072
271.271
269.559
269.363
269.57
270.322
268.371
267.166
267.126
267.864
267.715
263.116
261.394
257.957
252.757
230.814
104.502
34.045
8.91135
2.16769
0.515588
0.121877
0.0287632
0.0067864
0.00160117
0.000377777
8.91283e-05
2.10266e-05
4.96013e-06
1.17001e-06
2.75967e-07
6.50864e-08
1.53492e-08
3.61912e-09
8.52561e-10
2.00258e-10
4.69509e-11
1.11395e-11
1.93801e-12
-1.62181e-12
-3.16724e-12
-4.95781e-12
-5.59908e-12
-4.02522e-12
-2.50999e-12
-1.13687e-12
-3.14415e-13
7.35412e-13
1.26477e-12
-6.03961e-13
-1.41398e-12
-1.63425e-12
-3.05356e-12
-5.08926e-12
-6.73772e-12
-6.37179e-12
-6.92424e-12
-5.22071e-12
-4.78373e-12
-3.26317e-12
-1.72307e-12
-1.34825e-12
7.10543e-14
1.29852e-12
1.75859e-13
-1.74261e-12
-2.24176e-12
-3.97193e-12
-3.71436e-12
-2.7125e-12
-1.91314e-12
-1.83142e-12
-2.9079e-12
-3.81029e-12
-3.9222e-12
-2.40341e-12
-5.82645e-13
-4.08562e-13
-1.22569e-12
8.88178e-14
-1.81366e-12
-2.57927e-12
-1.85096e-12
-3.07132e-12
-2.56328e-12
-2.47624e-12
-2.67519e-12
-3.27205e-12
-1.72129e-12
-7.28306e-14
-9.43245e-13
-2.42828e-12
-2.23643e-12
-3.06599e-12
-4.9063e-12
-5.44453e-12
-6.74305e-12
-6.93134e-12
-6.43396e-12
-4.1922e-12
-3.05889e-12
-3.05178e-12
-2.24887e-12
-2.52953e-12
-1.92379e-12
-9.9476e-13
-3.9968e-13
-7.92255e-13
-1.30029e-12
-1.07825e-12
-1.10489e-12
-6.51923e-13
-2.84217e-14
1.09779e-12
1.47793e-12
-5.56e-13
8.10019e-13
3.19744e-14
-2.22045e-12
-3.36975e-12
-2.81197e-12
-1.668e-12
-9.05942e-13
-1.0445e-12
-2.28972e-12
-2.90967e-12
-3.14948e-12
-1.94689e-12
-2.46025e-12
-2.67875e-12
-1.8332e-12
-2.09255e-12
-2.44604e-12
-2.85461e-12
-2.3892e-12
-2.08722e-12
-2.16716e-12
-1.59872e-13
1.32516e-12
1.95577e-12
1.07647e-12
-7.30083e-13
-2.12808e-12
-1.83498e-12
-2.3217e-12
-1.0143e-12
-1.38023e-12
-8.02913e-13
-2.62901e-13
-5.04485e-13
-2.75335e-13
7.70939e-13
2.00728e-12
1.7959e-12
2.4496e-12
9.02389e-13
1.61648e-12
1.64491e-12
3.39639e-12
1.96287e-12
1.20437e-12
-4.88498e-13
-2.2542e-12
-1.87761e-12
-1.97176e-12
-2.64322e-12
-3.58469e-12
-4.25615e-12
-5.29887e-12
-5.69678e-12
-5.45164e-12
-6.43219e-12
-7.98295e-12
-7.89235e-12
-7.68985e-12
-7.61524e-12
-5.61684e-12
-3.55982e-12
-1.00009e-12
3.48166e-13
2.40696e-12
4.31299e-12
4.48352e-12
6.51035e-12
6.17284e-12
5.38058e-12
5.28466e-12
5.65592e-12
5.02887e-12
5.04308e-12
5.41078e-12
7.50688e-12
7.4234e-12
5.4694e-12
5.25624e-12
3.86358e-12
1.9309e-12
1.45128e-12
9.89431e-13
-4.7784e-13
2.22045e-13
2.21689e-12
3.66995e-12
4.98623e-12
4.88676e-12
5.19229e-12
5.59197e-12
6.00586e-12
5.17275e-12
3.82272e-12
2.39808e-12
1.76215e-12
1.69642e-12
-2.66454e-13
3.25073e-13
1.13154e-12
2.40163e-12
2.63967e-12
3.64686e-12
4.06075e-12
4.40714e-12
4.97913e-12
4.46398e-12
6.33271e-12
4.66649e-12
4.72156e-12
5.58842e-12
5.44276e-12
4.27747e-12
4.28635e-12
4.51905e-12
2.93099e-12
2.73737e-12
3.85825e-12
4.34852e-12
3.88134e-12
3.78009e-12
4.03411e-12
2.07123e-12
7.69163e-13
-7.51399e-13
-8.88178e-13
-2.52243e-13
-8.33111e-13
-5.71987e-13
-1.55076e-12
-2.22045e-12
-2.11564e-12
-1.71418e-12
-1.7728e-12
-1.6005e-12
-3.16192e-13
-7.2653e-13
3.25073e-13
2.20446e-12
3.29692e-12
3.21876e-12
3.6291e-12
1.803e-12
2.93809e-12
1.0445e-12
1.58451e-12
1.73017e-12
1.45661e-13
2.55618e-12
3.21698e-12
2.95586e-12
4.89564e-12
6.72706e-12
7.3932e-12
7.09477e-12
5.60085e-12
5.91349e-12
5.62217e-12
6.46061e-12
8.15525e-12
9.84457e-12
1.16724e-11
1.26832e-11
1.27063e-11
1.06493e-11
1.1898e-11
1.27187e-11
1.06439e-11
9.07363e-12
8.58513e-12
1.0381e-11
1.01821e-11
8.745e-12
8.38796e-12
6.27232e-12
6.03073e-12
5.92415e-12
4.81393e-12
6.19238e-12
6.76437e-12
8.10019e-12
9.48042e-12
9.71667e-12
9.55502e-12
8.06466e-12
8.16414e-12
7.52998e-12
6.56186e-12
8.23874e-12
8.16414e-12
7.79998e-12
8.81784e-12
9.55147e-12
9.08784e-12
1.06084e-11
1.14557e-11
1.34666e-11
1.54881e-11
1.48699e-11
1.4996e-11
1.52358e-11
1.47544e-11
1.65148e-11
1.4909e-11
1.26246e-11
1.23705e-11
1.3463e-11
1.29781e-11
1.23013e-11
1.3646e-11
1.255e-11
1.31468e-11
1.17328e-11
1.27809e-11
1.23404e-11
1.24025e-11
1.38307e-11
1.48717e-11
1.5584e-11
1.62359e-11
1.47722e-11
1.48805e-11
1.50759e-11
1.61773e-11
1.65628e-11
1.72644e-11
1.90319e-11
)
;

boundaryField
{
    sides
    {
        type            calculated;
        value           nonuniform List<scalar> 2(1.85827e-11 4.88197e-11);
    }
    empty
    {
        type            empty;
        value           nonuniform 0();
    }
}


// ************************************************************************* //
