/*--------------------------------*- C++ -*----------------------------------*\
| =========                 |                                                 |
| \\      /  F ield         | OpenFOAM: The Open Source CFD Toolbox           |
|  \\    /   O peration     | Version:  4.1                                   |
|   \\  /    A nd           | Web:      www.OpenFOAM.org                      |
|    \\/     M anipulation  |                                                 |
\*---------------------------------------------------------------------------*/
FoamFile
{
    version     2.0;
    format      ascii;
    class       volScalarField;
    location    "0.0032";
    object      T;
}
// * * * * * * * * * * * * * * * * * * * * * * * * * * * * * * * * * * * * * //

dimensions      [0 0 0 1 0 0 0];

internalField   nonuniform List<scalar> 
1000
(
400
400
400
400
400
400
400
400
400
400
400
400
400
400
400
400
400
400
400
400
400
400
400
400
400
400
400
400
400
400
400
400
400
400
400
400
400
400
400
400
400
400
400
400
400
400
400
400
400
400
400
400
400
400
400
400
400
400
400
400
400
400
400
400
400
400
400
400
400
400
400
400
400
400
400
400
400
400
400
400
400
400
400
400
400
400
400
400
400
400
400
400
400
400
400
400
400
400
400
400
400
400
400
400
400
400
400
400
400
400
400
400
400
400
400
400
400
400
400
400
400
400
400
400
400
400
400
400
400
400
400
400
400
400
400
400
400
400
400
400
400
400
400
400
400
400
400
400
400
400
400
400
400
400
400
400
400
400
400
400
400
400
400
400
400
400
400
400
400
400
400
400
400
400
400
400
400
400
400
400
400
400
400
400
400
400
400
400
400
400
400
400
400
400
400
400
400
400
400
400
400
400
400
400
400
400
400
400
400
400
400
400
400
400
400
400
400
400
400
400
400
400
400
400
400
400
400
400
400
400
400
400
400
400
400
400
400
400
400
400
400
400
400
400
400
400
400
400
400
400
400
400
400
400
400
400
400
400
400
400
400
400
400
400
400
400
400
400
400
400
400
400
400
400
400
400
400
400
400
400
400
400
400
400
400
400
400
400
400
400
400
400
400
400
400
400
400
400
400
400
400
400
400
400
400
400
400
400
400
400
400
400
400
400
400
400
400
400
400
400
400
400
400
400
400
400
400
400
400
400
400
400
400
400
400
400
400
400
400
400
400
400
400
400
400
400
400
400
400
400
399.999
399.999
399.998
399.996
399.993
399.988
399.979
399.965
399.943
399.909
399.856
399.779
399.667
399.51
399.296
399.012
398.651
398.213
397.708
397.144
396.526
395.861
395.153
394.41
393.635
392.835
392.013
391.173
390.318
389.45
388.572
387.685
386.79
385.889
384.982
384.071
383.156
382.238
381.316
380.392
379.467
378.539
377.61
376.68
375.749
374.818
373.886
372.953
372.021
371.089
370.157
369.226
368.295
367.365
366.435
365.507
364.58
363.654
362.729
361.806
360.884
359.965
359.047
358.131
357.218
356.307
355.398
354.492
353.589
352.689
351.793
350.9
350.011
349.125
348.245
347.368
346.497
345.63
344.769
343.914
343.066
342.224
341.39
340.563
339.746
338.936
338.138
337.347
336.576
335.799
335.073
334.289
333.649
332.818
332.311
331.423
331.012
330.198
329.702
329.162
328.474
328.162
327.544
327.11
326.828
326.302
326.047
325.817
325.446
325.3
325.167
324.946
324.867
324.83
324.736
324.693
324.697
324.694
324.683
324.683
324.69
324.697
324.701
324.708
324.721
324.741
324.749
324.759
324.773
324.778
324.781
324.788
324.793
324.795
324.797
324.801
324.806
324.808
324.81
324.816
324.82
324.822
324.826
324.831
324.834
324.837
324.842
324.847
324.85
324.853
324.859
324.865
324.868
324.874
324.879
324.883
324.89
324.896
324.9
324.905
324.913
324.92
324.924
324.93
324.94
324.948
324.952
324.958
324.969
324.98
324.988
324.993
325.001
325.015
325.03
325.039
325.045
325.052
325.066
325.086
325.105
325.118
325.123
325.13
325.149
325.182
325.212
325.232
325.242
325.25
325.266
325.307
325.361
325.404
325.43
325.44
325.452
325.482
325.576
325.707
325.815
325.882
325.907
325.904
325.838
325.651
325.503
325.444
325.576
327.304
336.426
359.607
385.626
409.984
431.133
448.259
461.324
470.74
477.121
481.198
483.714
485.231
486.085
486.499
486.673
486.78
486.876
486.892
486.834
486.806
486.839
486.86
486.826
486.773
486.78
486.83
486.83
486.768
486.751
486.795
486.821
486.786
486.739
486.752
486.804
486.801
486.738
486.724
486.774
486.798
486.753
486.711
486.732
486.783
486.775
486.709
486.697
486.749
486.772
486.727
486.685
486.707
486.758
486.748
486.68
486.671
486.726
486.745
486.689
486.65
486.678
486.727
486.708
486.641
486.636
486.693
486.708
486.638
486.604
486.634
486.679
486.649
486.581
486.576
486.627
486.637
486.556
486.526
486.544
486.586
486.542
486.477
486.467
486.497
486.501
486.4
486.368
486.368
486.402
486.335
486.236
486.219
486.228
486.229
486.061
485.996
485.977
485.991
485.883
485.696
485.62
485.601
485.614
485.255
485.061
485.024
485.096
484.647
483.8
483.198
481.701
478.121
467.048
423.565
406.849
401.714
400.411
400.097
400.023
400.005
400.001
400
400
400
400
400
400
400
400
400
400
400
400
400
400
400
400
400
400
400
400
400
400
400
400
400
400
400
400
400
400
400
400
400
400
400
400
400
400
400
400
400
400
400
400
400
400
400
400
400
400
400
400
400
400
400
400
400
400
400
400
400
400
400
400
400
400
400
400
400
400
400
400
400
400
400
400
400
400
400
400
400
400
400
400
400
400
400
400
400
400
400
400
400
400
400
400
400
400
400
400
400
400
400
400
400
400
400
400
400
400
400
400
400
400
400
400
400
400
400
400
400
400
400
400
400
400
400
400
400
400
400
400
400
400
400
400
400
400
400
400
400
400
400
400
400
400
400
400
400
400
400
400
400
400
400
400
400
400
400
400
400
400
400
400
400
400
400
400
400
400
400
400
400
400
400
400
400
400
400
400
400
400
400
400
400
400
400
400
400
400
400
400
400
400
400
400
400
400
400
400
400
400
400
400
400
400
400
400
400
400
400
400
400
400
400
400
400
400
400
400
400
400
400
400
400
400
400
400
400
400
400
400
400
400
400
400
400
400
400
400
400
400
400
400
400
400
400
400
400
400
400
400
400
400
400
400
400
400
400
400
400
400
400
400
400
400
400
400
400
400
400
400
400
400
400
400
400
400
400
400
400
400
400
400
400
400
400
400
400
400
400
400
400
400
400
400
400
400
400
400
400
400
400
400
400
400
400
400
400
400
400
400
400
400
400
400
400
400
400
)
;

boundaryField
{
    sides
    {
        type            zeroGradient;
    }
    empty
    {
        type            empty;
    }
}


// ************************************************************************* //
