/*--------------------------------*- C++ -*----------------------------------*\
| =========                 |                                                 |
| \\      /  F ield         | OpenFOAM: The Open Source CFD Toolbox           |
|  \\    /   O peration     | Version:  4.1                                   |
|   \\  /    A nd           | Web:      www.OpenFOAM.org                      |
|    \\/     M anipulation  |                                                 |
\*---------------------------------------------------------------------------*/
FoamFile
{
    version     2.0;
    format      ascii;
    class       volVectorField;
    location    "0.0032";
    object      U;
}
// * * * * * * * * * * * * * * * * * * * * * * * * * * * * * * * * * * * * * //

dimensions      [0 1 -1 0 0 0 0];

internalField   nonuniform List<vector> 
1000
(
(-1.40487e-11 0 0)
(-1.41315e-11 0 0)
(-1.55061e-11 0 0)
(-1.44664e-11 0 0)
(-1.33293e-11 0 0)
(-1.59753e-11 0 0)
(-1.65356e-11 0 0)
(-1.71083e-11 0 0)
(-1.60138e-11 0 0)
(-1.62874e-11 0 0)
(-1.30101e-11 0 0)
(-1.43809e-11 0 0)
(-1.26896e-11 0 0)
(-1.43394e-11 0 0)
(-1.29313e-11 0 0)
(-1.47508e-11 0 0)
(-1.43411e-11 0 0)
(-1.79127e-11 0 0)
(-1.40327e-11 0 0)
(-1.70498e-11 0 0)
(-1.36978e-11 0 0)
(-1.47535e-11 0 0)
(-1.42118e-11 0 0)
(-1.56977e-11 0 0)
(-1.24139e-11 0 0)
(-1.66625e-11 0 0)
(-1.35972e-11 0 0)
(-1.55287e-11 0 0)
(-1.53821e-11 0 0)
(-1.50056e-11 0 0)
(-1.58232e-11 0 0)
(-1.55654e-11 0 0)
(-1.76275e-11 0 0)
(-1.39887e-11 0 0)
(-1.57518e-11 0 0)
(-1.33112e-11 0 0)
(-1.51733e-11 0 0)
(-1.22088e-11 0 0)
(-1.68163e-11 0 0)
(-1.18068e-11 0 0)
(-1.51342e-11 0 0)
(-1.32142e-11 0 0)
(-1.37425e-11 0 0)
(-8.18862e-12 0 0)
(-1.01236e-11 0 0)
(-5.09324e-12 0 0)
(-5.85241e-12 0 0)
(-4.22581e-12 0 0)
(-4.26038e-12 0 0)
(-4.38582e-12 0 0)
(-3.8392e-12 0 0)
(-1.17237e-12 0 0)
(-2.82054e-12 0 0)
(2.06088e-12 0 0)
(1.73582e-12 0 0)
(-7.5823e-13 0 0)
(-1.01979e-12 0 0)
(-3.52431e-12 0 0)
(-5.60405e-13 0 0)
(-3.19991e-12 0 0)
(-7.27388e-13 0 0)
(-4.11013e-12 0 0)
(-5.01499e-12 0 0)
(-5.70632e-12 0 0)
(-1.29475e-12 0 0)
(-1.66378e-12 0 0)
(7.82937e-13 0 0)
(-1.22535e-12 0 0)
(2.12874e-12 0 0)
(2.11846e-12 0 0)
(6.88088e-12 0 0)
(1.94333e-12 0 0)
(2.80835e-12 0 0)
(-2.85845e-13 0 0)
(3.17136e-12 0 0)
(-2.25345e-12 0 0)
(1.38427e-12 0 0)
(7.57746e-13 0 0)
(-6.86382e-13 0 0)
(-1.60576e-13 0 0)
(1.33512e-12 0 0)
(5.77991e-13 0 0)
(1.89323e-12 0 0)
(2.94294e-12 0 0)
(4.2721e-12 0 0)
(7.77472e-12 0 0)
(6.8321e-12 0 0)
(7.76085e-12 0 0)
(5.2186e-12 0 0)
(8.4391e-12 0 0)
(7.70642e-12 0 0)
(7.59778e-12 0 0)
(7.10771e-12 0 0)
(1.00113e-11 0 0)
(3.83455e-12 0 0)
(9.28403e-12 0 0)
(6.48487e-12 0 0)
(8.69384e-12 0 0)
(5.36341e-12 0 0)
(7.79185e-12 0 0)
(7.86618e-12 0 0)
(8.33072e-12 0 0)
(9.60049e-12 0 0)
(7.34991e-12 0 0)
(8.94947e-12 0 0)
(7.03141e-12 0 0)
(6.38375e-12 0 0)
(3.09105e-12 0 0)
(2.90113e-12 0 0)
(4.49903e-12 0 0)
(4.69703e-12 0 0)
(4.23942e-12 0 0)
(4.93632e-12 0 0)
(4.99436e-12 0 0)
(4.36376e-12 0 0)
(5.99241e-12 0 0)
(6.52518e-12 0 0)
(6.05847e-12 0 0)
(5.25894e-12 0 0)
(6.48335e-12 0 0)
(7.62146e-12 0 0)
(8.08315e-12 0 0)
(7.09957e-12 0 0)
(8.39184e-12 0 0)
(7.32688e-12 0 0)
(7.60456e-12 0 0)
(4.51871e-12 0 0)
(4.79776e-12 0 0)
(2.32435e-12 0 0)
(4.76125e-12 0 0)
(2.9357e-12 0 0)
(5.52392e-12 0 0)
(4.24367e-12 0 0)
(2.36636e-12 0 0)
(5.09399e-12 0 0)
(4.98619e-12 0 0)
(4.97708e-12 0 0)
(2.85564e-12 0 0)
(2.30043e-12 0 0)
(2.54657e-12 0 0)
(3.46546e-12 0 0)
(3.84589e-12 0 0)
(2.44332e-12 0 0)
(3.97409e-12 0 0)
(2.6269e-12 0 0)
(5.30999e-12 0 0)
(5.72027e-12 0 0)
(3.49623e-12 0 0)
(5.16783e-12 0 0)
(2.97542e-12 0 0)
(5.56013e-12 0 0)
(3.60395e-12 0 0)
(4.8415e-12 0 0)
(2.47127e-12 0 0)
(5.26632e-12 0 0)
(2.43714e-12 0 0)
(3.4171e-12 0 0)
(3.02305e-12 0 0)
(7.01471e-12 0 0)
(6.96147e-12 0 0)
(8.14933e-12 0 0)
(7.89119e-12 0 0)
(7.13913e-12 0 0)
(5.98829e-12 0 0)
(3.41877e-12 0 0)
(4.17222e-12 0 0)
(2.30334e-12 0 0)
(5.71058e-12 0 0)
(5.82259e-12 0 0)
(4.10096e-12 0 0)
(7.88894e-12 0 0)
(8.86361e-12 0 0)
(8.85785e-12 0 0)
(9.22361e-12 0 0)
(8.03928e-12 0 0)
(9.0983e-12 0 0)
(6.42014e-12 0 0)
(9.01368e-12 0 0)
(7.40066e-12 0 0)
(1.06449e-11 0 0)
(5.04156e-12 0 0)
(7.4646e-12 0 0)
(7.03059e-12 0 0)
(6.08353e-12 0 0)
(6.74084e-12 0 0)
(7.42632e-12 0 0)
(4.09343e-12 0 0)
(5.33662e-12 0 0)
(2.68127e-12 0 0)
(2.81811e-12 0 0)
(3.13201e-12 0 0)
(5.4074e-13 0 0)
(3.08589e-12 0 0)
(-1.07604e-12 0 0)
(2.38518e-12 0 0)
(1.18547e-12 0 0)
(4.86226e-12 0 0)
(2.68151e-12 0 0)
(5.47511e-12 0 0)
(3.33779e-12 0 0)
(7.89334e-12 0 0)
(5.02434e-12 0 0)
(7.56872e-12 0 0)
(8.11915e-12 0 0)
(1.05015e-11 0 0)
(7.02279e-12 0 0)
(6.66567e-12 0 0)
(6.18934e-12 0 0)
(5.54075e-12 0 0)
(9.13861e-12 0 0)
(8.54681e-12 0 0)
(8.04563e-12 0 0)
(8.85203e-12 0 0)
(8.08787e-12 0 0)
(7.06725e-12 0 0)
(1.09291e-11 0 0)
(4.69327e-12 0 0)
(7.48939e-12 0 0)
(5.08161e-12 0 0)
(8.55658e-12 0 0)
(4.84782e-12 0 0)
(8.02639e-12 0 0)
(4.88685e-12 0 0)
(1.14622e-11 0 0)
(3.81064e-12 0 0)
(8.92796e-12 0 0)
(-3.85905e-13 0 0)
(6.45845e-12 0 0)
(5.53511e-12 0 0)
(7.02285e-12 0 0)
(5.15042e-12 0 0)
(6.32196e-12 0 0)
(9.19851e-12 0 0)
(2.86781e-12 0 0)
(7.11614e-12 0 0)
(1.71893e-12 0 0)
(6.47569e-12 0 0)
(-1.55398e-12 0 0)
(3.97618e-12 0 0)
(1.6319e-12 0 0)
(4.37213e-12 0 0)
(2.07657e-12 0 0)
(4.41265e-12 0 0)
(-3.00942e-14 0 0)
(3.6032e-12 0 0)
(1.89801e-12 0 0)
(3.58682e-12 0 0)
(2.01057e-12 0 0)
(7.91971e-13 0 0)
(4.16834e-12 0 0)
(5.62399e-12 0 0)
(2.62393e-12 0 0)
(3.69821e-12 0 0)
(1.17123e-12 0 0)
(2.11513e-12 0 0)
(1.13681e-12 0 0)
(-8.65946e-13 0 0)
(7.83072e-13 0 0)
(3.68109e-12 0 0)
(3.11981e-12 0 0)
(5.00273e-12 0 0)
(2.03398e-12 0 0)
(3.8491e-12 0 0)
(3.03452e-12 0 0)
(6.07988e-12 0 0)
(3.49225e-12 0 0)
(4.77938e-12 0 0)
(7.19826e-13 0 0)
(2.46165e-12 0 0)
(2.04733e-12 0 0)
(-3.13809e-13 0 0)
(-3.95254e-13 0 0)
(-1.09868e-12 0 0)
(1.23284e-12 0 0)
(-5.56682e-13 0 0)
(4.97911e-12 0 0)
(3.51346e-13 0 0)
(3.63653e-12 0 0)
(2.60138e-12 0 0)
(4.99427e-12 0 0)
(3.25533e-12 0 0)
(4.32037e-12 0 0)
(2.88767e-12 0 0)
(6.2424e-12 0 0)
(5.15281e-12 0 0)
(9.8528e-12 0 0)
(6.70116e-12 0 0)
(8.62038e-12 0 0)
(6.01882e-12 0 0)
(6.53418e-12 0 0)
(4.43636e-12 0 0)
(4.83317e-12 0 0)
(7.22237e-12 0 0)
(5.51826e-12 0 0)
(5.76262e-12 0 0)
(4.344e-12 0 0)
(2.50275e-12 0 0)
(4.55689e-12 0 0)
(7.38151e-12 0 0)
(8.21813e-12 0 0)
(1.05534e-11 0 0)
(7.80915e-12 0 0)
(7.12879e-12 0 0)
(3.83297e-12 0 0)
(5.82471e-12 0 0)
(3.8259e-12 0 0)
(3.65012e-12 0 0)
(7.21093e-12 0 0)
(6.62441e-12 0 0)
(4.727e-12 0 0)
(5.9441e-12 0 0)
(7.34718e-12 0 0)
(8.40954e-12 0 0)
(1.06644e-11 0 0)
(8.05921e-12 0 0)
(8.6089e-12 0 0)
(4.96468e-12 0 0)
(4.83413e-12 0 0)
(5.31009e-12 0 0)
(4.61253e-12 0 0)
(1.78396e-12 0 0)
(1.16612e-12 0 0)
(4.30565e-12 0 0)
(1.77499e-12 0 0)
(4.84512e-12 0 0)
(1.06184e-11 0 0)
(2.50543e-11 0 0)
(6.30634e-11 0 0)
(1.50396e-10 0 0)
(3.5641e-10 0 0)
(8.31173e-10 0 0)
(1.91542e-09 0 0)
(4.3615e-09 0 0)
(9.83431e-09 0 0)
(2.19444e-08 0 0)
(4.84617e-08 0 0)
(1.05912e-07 0 0)
(2.29048e-07 0 0)
(4.90095e-07 0 0)
(1.03737e-06 0 0)
(2.17174e-06 0 0)
(4.49587e-06 0 0)
(9.20146e-06 0 0)
(1.86139e-05 0 0)
(3.72092e-05 0 0)
(7.34824e-05 0 0)
(0.000143324 0 0)
(0.000276011 0 0)
(0.000524656 0 0)
(0.000984053 0 0)
(0.00182055 0 0)
(0.00332091 0 0)
(0.00597043 0 0)
(0.0105742 0 0)
(0.0184407 0 0)
(0.0316487 0 0)
(0.0534236 0 0)
(0.0886402 0 0)
(0.14446 0 0)
(0.231073 0 0)
(0.362477 0 0)
(0.557116 0 0)
(0.838148 0 0)
(1.23293 0 0)
(1.77117 0 0)
(2.48091 0 0)
(3.38034 0 0)
(4.46786 0 0)
(5.72555 0 0)
(7.13424 0 0)
(8.679 0 0)
(10.3459 0 0)
(12.1204 0 0)
(13.9883 0 0)
(15.9362 0 0)
(17.9519 0 0)
(20.025 0 0)
(22.1466 0 0)
(24.3093 0 0)
(26.507 0 0)
(28.7345 0 0)
(30.9877 0 0)
(33.2632 0 0)
(35.5581 0 0)
(37.8699 0 0)
(40.1968 0 0)
(42.5368 0 0)
(44.8887 0 0)
(47.251 0 0)
(49.6226 0 0)
(52.0027 0 0)
(54.3903 0 0)
(56.7846 0 0)
(59.1849 0 0)
(61.5906 0 0)
(64.0012 0 0)
(66.416 0 0)
(68.8347 0 0)
(71.2567 0 0)
(73.6815 0 0)
(76.1089 0 0)
(78.5383 0 0)
(80.9694 0 0)
(83.4018 0 0)
(85.8352 0 0)
(88.2692 0 0)
(90.7034 0 0)
(93.1375 0 0)
(95.5711 0 0)
(98.0039 0 0)
(100.435 0 0)
(102.865 0 0)
(105.294 0 0)
(107.719 0 0)
(110.142 0 0)
(112.562 0 0)
(114.978 0 0)
(117.39 0 0)
(119.797 0 0)
(122.199 0 0)
(124.595 0 0)
(126.985 0 0)
(129.368 0 0)
(131.744 0 0)
(134.11 0 0)
(136.468 0 0)
(138.816 0 0)
(141.152 0 0)
(143.477 0 0)
(145.789 0 0)
(148.086 0 0)
(150.368 0 0)
(152.632 0 0)
(154.879 0 0)
(157.105 0 0)
(159.309 0 0)
(161.489 0 0)
(163.643 0 0)
(165.769 0 0)
(167.863 0 0)
(169.924 0 0)
(171.947 0 0)
(173.931 0 0)
(175.868 0 0)
(177.76 0 0)
(179.598 0 0)
(181.379 0 0)
(183.098 0 0)
(184.75 0 0)
(186.332 0 0)
(187.833 0 0)
(189.251 0 0)
(190.581 0 0)
(191.814 0 0)
(192.95 0 0)
(193.98 0 0)
(194.903 0 0)
(195.719 0 0)
(196.424 0 0)
(197.022 0 0)
(197.517 0 0)
(197.912 0 0)
(198.219 0 0)
(198.448 0 0)
(198.606 0 0)
(198.71 0 0)
(198.768 0 0)
(198.793 0 0)
(198.8 0 0)
(198.802 0 0)
(198.802 0 0)
(198.797 0 0)
(198.786 0 0)
(198.765 0 0)
(198.733 0 0)
(198.697 0 0)
(198.666 0 0)
(198.64 0 0)
(198.621 0 0)
(198.608 0 0)
(198.599 0 0)
(198.594 0 0)
(198.591 0 0)
(198.589 0 0)
(198.587 0 0)
(198.585 0 0)
(198.584 0 0)
(198.583 0 0)
(198.582 0 0)
(198.581 0 0)
(198.581 0 0)
(198.579 0 0)
(198.578 0 0)
(198.577 0 0)
(198.576 0 0)
(198.576 0 0)
(198.575 0 0)
(198.574 0 0)
(198.573 0 0)
(198.573 0 0)
(198.572 0 0)
(198.572 0 0)
(198.571 0 0)
(198.57 0 0)
(198.57 0 0)
(198.569 0 0)
(198.568 0 0)
(198.567 0 0)
(198.566 0 0)
(198.566 0 0)
(198.565 0 0)
(198.564 0 0)
(198.563 0 0)
(198.562 0 0)
(198.562 0 0)
(198.561 0 0)
(198.559 0 0)
(198.558 0 0)
(198.557 0 0)
(198.557 0 0)
(198.556 0 0)
(198.555 0 0)
(198.555 0 0)
(198.554 0 0)
(198.553 0 0)
(198.552 0 0)
(198.552 0 0)
(198.551 0 0)
(198.55 0 0)
(198.549 0 0)
(198.549 0 0)
(198.55 0 0)
(198.55 0 0)
(198.548 0 0)
(198.547 0 0)
(198.547 0 0)
(198.547 0 0)
(198.547 0 0)
(198.546 0 0)
(198.546 0 0)
(198.546 0 0)
(198.546 0 0)
(198.546 0 0)
(198.546 0 0)
(198.545 0 0)
(198.544 0 0)
(198.542 0 0)
(198.542 0 0)
(198.543 0 0)
(198.542 0 0)
(198.541 0 0)
(198.54 0 0)
(198.54 0 0)
(198.539 0 0)
(198.539 0 0)
(198.542 0 0)
(198.552 0 0)
(198.576 0 0)
(198.641 0 0)
(198.792 0 0)
(198.917 0 0)
(198.824 0 0)
(198.637 0 0)
(198.537 0 0)
(198.486 0 0)
(198.457 0 0)
(198.466 0 0)
(198.505 0 0)
(198.526 0 0)
(198.512 0 0)
(198.498 0 0)
(198.522 0 0)
(198.549 0 0)
(198.535 0 0)
(198.504 0 0)
(198.508 0 0)
(198.542 0 0)
(198.548 0 0)
(198.512 0 0)
(198.49 0 0)
(198.515 0 0)
(198.542 0 0)
(198.522 0 0)
(198.487 0 0)
(198.495 0 0)
(198.531 0 0)
(198.535 0 0)
(198.501 0 0)
(198.483 0 0)
(198.512 0 0)
(198.538 0 0)
(198.515 0 0)
(198.481 0 0)
(198.492 0 0)
(198.527 0 0)
(198.527 0 0)
(198.49 0 0)
(198.475 0 0)
(198.506 0 0)
(198.529 0 0)
(198.501 0 0)
(198.465 0 0)
(198.48 0 0)
(198.517 0 0)
(198.511 0 0)
(198.47 0 0)
(198.455 0 0)
(198.487 0 0)
(198.508 0 0)
(198.477 0 0)
(198.44 0 0)
(198.454 0 0)
(198.488 0 0)
(198.478 0 0)
(198.432 0 0)
(198.417 0 0)
(198.448 0 0)
(198.463 0 0)
(198.423 0 0)
(198.384 0 0)
(198.398 0 0)
(198.428 0 0)
(198.407 0 0)
(198.352 0 0)
(198.337 0 0)
(198.365 0 0)
(198.368 0 0)
(198.314 0 0)
(198.267 0 0)
(198.275 0 0)
(198.295 0 0)
(198.258 0 0)
(198.191 0 0)
(198.166 0 0)
(198.18 0 0)
(198.165 0 0)
(198.095 0 0)
(198.034 0 0)
(198.022 0 0)
(198.018 0 0)
(197.957 0 0)
(197.868 0 0)
(197.819 0 0)
(197.801 0 0)
(197.751 0 0)
(197.646 0 0)
(197.552 0 0)
(197.499 0 0)
(197.45 0 0)
(197.336 0 0)
(197.188 0 0)
(197.077 0 0)
(196.999 0 0)
(196.884 0 0)
(196.683 0 0)
(196.483 0 0)
(196.345 0 0)
(196.22 0 0)
(195.976 0 0)
(195.649 0 0)
(195.389 0 0)
(195.195 0 0)
(194.905 0 0)
(194.397 0 0)
(193.854 0 0)
(193.455 0 0)
(193.118 0 0)
(192.327 0 0)
(190.923 0 0)
(188.83 0 0)
(184.85 0 0)
(174.327 0 0)
(135.426 0 0)
(64.0348 0 0)
(18.05 0 0)
(4.57672 0 0)
(1.10183 0 0)
(0.261331 0 0)
(0.061725 0 0)
(0.014566 0 0)
(0.00343673 0 0)
(0.000810867 0 0)
(0.00019131 0 0)
(4.51335e-05 0 0)
(1.06472e-05 0 0)
(2.51154e-06 0 0)
(5.92404e-07 0 0)
(1.3972e-07 0 0)
(3.29522e-08 0 0)
(7.76914e-09 0 0)
(1.83273e-09 0 0)
(4.29215e-10 0 0)
(1.02181e-10 0 0)
(2.26994e-11 0 0)
(6.70166e-12 0 0)
(-1.41261e-12 0 0)
(-2.42435e-12 0 0)
(-4.82185e-12 0 0)
(-6.24484e-12 0 0)
(-6.06695e-12 0 0)
(-3.43061e-12 0 0)
(-2.61217e-12 0 0)
(-4.2547e-13 0 0)
(-1.84014e-13 0 0)
(2.22059e-12 0 0)
(2.8431e-13 0 0)
(-1.41534e-12 0 0)
(-1.96683e-12 0 0)
(-2.20414e-12 0 0)
(-4.82041e-12 0 0)
(-7.16402e-12 0 0)
(-7.94692e-12 0 0)
(-7.16311e-12 0 0)
(-7.98454e-12 0 0)
(-4.67424e-12 0 0)
(-6.05237e-12 0 0)
(-1.80105e-12 0 0)
(-1.75456e-12 0 0)
(-1.06492e-12 0 0)
(1.14134e-12 0 0)
(2.1569e-12 0 0)
(-1.67835e-12 0 0)
(-2.71672e-12 0 0)
(-2.62839e-12 0 0)
(-5.76324e-12 0 0)
(-2.72609e-12 0 0)
(-3.78686e-12 0 0)
(-3.17147e-13 0 0)
(-4.49852e-12 0 0)
(-1.89767e-12 0 0)
(-6.16362e-12 0 0)
(-2.27826e-12 0 0)
(-3.91535e-12 0 0)
(2.38658e-12 0 0)
(-3.30002e-12 0 0)
(1.08555e-12 0 0)
(-1.10303e-12 0 0)
(-2.35616e-12 0 0)
(-3.19514e-12 0 0)
(-1.49124e-12 0 0)
(-4.83047e-12 0 0)
(-1.78546e-12 0 0)
(-3.40961e-12 0 0)
(-3.1802e-12 0 0)
(-4.17311e-12 0 0)
(3.8731e-15 0 0)
(-1.06478e-13 0 0)
(-2.29511e-12 0 0)
(-2.7942e-12 0 0)
(-2.74424e-12 0 0)
(-4.37531e-12 0 0)
(-6.50503e-12 0 0)
(-6.33428e-12 0 0)
(-9.19782e-12 0 0)
(-6.08139e-12 0 0)
(-8.40941e-12 0 0)
(-1.75569e-12 0 0)
(-5.76681e-12 0 0)
(-7.37779e-13 0 0)
(-4.43691e-12 0 0)
(-1.65814e-12 0 0)
(-2.41726e-12 0 0)
(-1.88534e-13 0 0)
(-6.02801e-13 0 0)
(-1.09053e-12 0 0)
(-2.23061e-12 0 0)
(-8.42234e-14 0 0)
(-2.10733e-12 0 0)
(3.28931e-13 0 0)
(-3.63874e-13 0 0)
(2.96848e-12 0 0)
(9.02784e-14 0 0)
(-1.07247e-12 0 0)
(2.66735e-12 0 0)
(-2.64081e-12 0 0)
(-2.08791e-12 0 0)
(-5.47335e-12 0 0)
(-1.34628e-12 0 0)
(-2.54112e-12 0 0)
(9.71838e-13 0 0)
(-4.00404e-12 0 0)
(-7.41855e-13 0 0)
(-6.26948e-12 0 0)
(-1.29785e-12 0 0)
(-2.55122e-12 0 0)
(-3.88227e-12 0 0)
(-1.87091e-12 0 0)
(-1.89183e-12 0 0)
(-3.43386e-12 0 0)
(-2.61652e-12 0 0)
(-3.28015e-12 0 0)
(-2.55377e-12 0 0)
(-2.25031e-12 0 0)
(-2.47705e-12 0 0)
(2.0192e-12 0 0)
(1.41675e-12 0 0)
(2.76279e-12 0 0)
(-2.44211e-13 0 0)
(-1.61183e-12 0 0)
(-2.8138e-12 0 0)
(-2.01759e-12 0 0)
(-2.59442e-12 0 0)
(-2.27751e-13 0 0)
(-2.4704e-12 0 0)
(8.21351e-13 0 0)
(-1.65667e-12 0 0)
(7.73503e-13 0 0)
(-1.58731e-12 0 0)
(3.72296e-12 0 0)
(2.16992e-13 0 0)
(4.61989e-12 0 0)
(3.06655e-13 0 0)
(2.12494e-12 0 0)
(1.12489e-12 0 0)
(3.09957e-12 0 0)
(3.9495e-12 0 0)
(1.3003e-12 0 0)
(9.38348e-13 0 0)
(-1.88996e-12 0 0)
(-3.03792e-12 0 0)
(-1.41131e-12 0 0)
(-2.69802e-12 0 0)
(-4.02714e-12 0 0)
(-3.58502e-12 0 0)
(-6.23996e-12 0 0)
(-6.49309e-12 0 0)
(-6.25296e-12 0 0)
(-6.09117e-12 0 0)
(-9.14652e-12 0 0)
(-8.65751e-12 0 0)
(-9.06727e-12 0 0)
(-9.4262e-12 0 0)
(-7.67825e-12 0 0)
(-4.9889e-12 0 0)
(-2.69954e-12 0 0)
(-1.12442e-13 0 0)
(1.17249e-12 0 0)
(4.29715e-12 0 0)
(4.76547e-12 0 0)
(6.52799e-12 0 0)
(7.53042e-12 0 0)
(7.32374e-12 0 0)
(5.60511e-12 0 0)
(5.97939e-12 0 0)
(6.62821e-12 0 0)
(5.63473e-12 0 0)
(5.04225e-12 0 0)
(8.45012e-12 0 0)
(7.90205e-12 0 0)
(8.45037e-12 0 0)
(5.29168e-12 0 0)
(5.82559e-12 0 0)
(3.28909e-12 0 0)
(1.70991e-12 0 0)
(1.23578e-12 0 0)
(8.19131e-13 0 0)
(-1.69701e-12 0 0)
(2.03324e-12 0 0)
(3.17468e-12 0 0)
(5.33938e-12 0 0)
(6.17026e-12 0 0)
(5.67852e-12 0 0)
(6.3687e-12 0 0)
(6.50925e-12 0 0)
(6.45386e-12 0 0)
(5.73579e-12 0 0)
(3.44359e-12 0 0)
(1.63636e-12 0 0)
(3.02132e-12 0 0)
(2.13245e-13 0 0)
(-5.91509e-13 0 0)
(1.13703e-12 0 0)
(1.85834e-12 0 0)
(3.24369e-12 0 0)
(2.75582e-12 0 0)
(5.47643e-12 0 0)
(4.34527e-12 0 0)
(5.83186e-12 0 0)
(4.86994e-12 0 0)
(6.38649e-12 0 0)
(7.14933e-12 0 0)
(4.04423e-12 0 0)
(7.07811e-12 0 0)
(6.08918e-12 0 0)
(6.14894e-12 0 0)
(3.92125e-12 0 0)
(5.49028e-12 0 0)
(4.80194e-12 0 0)
(2.46891e-12 0 0)
(3.5403e-12 0 0)
(4.99997e-12 0 0)
(4.54071e-12 0 0)
(4.87377e-12 0 0)
(3.7534e-12 0 0)
(4.96951e-12 0 0)
(1.77448e-13 0 0)
(1.25911e-12 0 0)
(-2.57325e-12 0 0)
(1.2381e-13 0 0)
(-6.76053e-13 0 0)
(-1.07097e-12 0 0)
(-7.47191e-14 0 0)
(-3.86543e-12 0 0)
(-1.26152e-12 0 0)
(-3.15268e-12 0 0)
(-6.1089e-13 0 0)
(-3.96252e-12 0 0)
(6.81876e-13 0 0)
(-1.49806e-12 0 0)
(-1.01433e-13 0 0)
(8.2777e-13 0 0)
(4.24365e-12 0 0)
(3.28497e-12 0 0)
(5.0839e-12 0 0)
(2.00515e-12 0 0)
(2.95838e-12 0 0)
(2.97544e-12 0 0)
(-4.53787e-13 0 0)
(4.47537e-12 0 0)
(-1.0263e-12 0 0)
(1.45518e-12 0 0)
(4.37279e-12 0 0)
(2.93923e-12 0 0)
(4.1752e-12 0 0)
(6.7504e-12 0 0)
(8.7846e-12 0 0)
(8.24276e-12 0 0)
(7.46795e-12 0 0)
(6.39121e-12 0 0)
(6.38778e-12 0 0)
(6.66231e-12 0 0)
(8.36232e-12 0 0)
(1.07482e-11 0 0)
(1.17472e-11 0 0)
(1.46866e-11 0 0)
(1.50167e-11 0 0)
(1.32689e-11 0 0)
(1.25868e-11 0 0)
(1.46532e-11 0 0)
(1.3412e-11 0 0)
(1.16455e-11 0 0)
(9.51512e-12 0 0)
(1.11045e-11 0 0)
(1.1852e-11 0 0)
(1.10459e-11 0 0)
(9.90445e-12 0 0)
(8.23594e-12 0 0)
(6.74044e-12 0 0)
(8.16637e-12 0 0)
(4.3543e-12 0 0)
(7.52769e-12 0 0)
(6.09072e-12 0 0)
(9.80158e-12 0 0)
(9.14684e-12 0 0)
(1.25542e-11 0 0)
(1.07571e-11 0 0)
(1.03017e-11 0 0)
(8.81886e-12 0 0)
(9.40555e-12 0 0)
(7.84507e-12 0 0)
(7.71379e-12 0 0)
(1.04983e-11 0 0)
(8.33869e-12 0 0)
(9.79245e-12 0 0)
(1.09545e-11 0 0)
(1.06097e-11 0 0)
(1.05855e-11 0 0)
(1.36235e-11 0 0)
(1.32857e-11 0 0)
(1.77224e-11 0 0)
(1.67586e-11 0 0)
(1.83795e-11 0 0)
(1.67353e-11 0 0)
(1.77562e-11 0 0)
(1.71893e-11 0 0)
(1.94839e-11 0 0)
(1.47833e-11 0 0)
(1.46543e-11 0 0)
(1.46493e-11 0 0)
(1.54299e-11 0 0)
(1.42509e-11 0 0)
(1.52995e-11 0 0)
(1.50517e-11 0 0)
(1.46728e-11 0 0)
(1.42011e-11 0 0)
(1.3869e-11 0 0)
(1.53123e-11 0 0)
(1.30775e-11 0 0)
(1.5409e-11 0 0)
(1.61982e-11 0 0)
(1.82651e-11 0 0)
(1.76908e-11 0 0)
(1.90606e-11 0 0)
(1.56154e-11 0 0)
(1.83307e-11 0 0)
(1.64109e-11 0 0)
(2.067e-11 0 0)
(1.78392e-11 0 0)
(2.20172e-11 0 0)
(2.13648e-11 0 0)
)
;

boundaryField
{
    sides
    {
        type            zeroGradient;
    }
    empty
    {
        type            empty;
    }
}


// ************************************************************************* //
