/*--------------------------------*- C++ -*----------------------------------*\
| =========                 |                                                 |
| \\      /  F ield         | OpenFOAM: The Open Source CFD Toolbox           |
|  \\    /   O peration     | Version:  4.1                                   |
|   \\  /    A nd           | Web:      www.OpenFOAM.org                      |
|    \\/     M anipulation  |                                                 |
\*---------------------------------------------------------------------------*/
FoamFile
{
    version     2.0;
    format      ascii;
    class       volScalarField;
    location    "0.0026";
    object      mag(U);
}
// * * * * * * * * * * * * * * * * * * * * * * * * * * * * * * * * * * * * * //

dimensions      [0 1 -1 0 0 0 0];

internalField   nonuniform List<scalar> 
1000
(
1.4474e-11
1.65194e-11
1.85274e-11
1.82175e-11
1.76111e-11
1.82111e-11
1.83592e-11
1.82625e-11
1.55346e-11
1.65943e-11
1.47362e-11
1.78578e-11
1.57957e-11
1.66124e-11
1.50425e-11
1.67255e-11
1.57592e-11
1.76053e-11
1.27693e-11
1.30549e-11
1.26556e-11
1.4258e-11
1.22004e-11
1.38227e-11
1.06094e-11
1.50306e-11
1.12924e-11
1.18165e-11
8.41037e-12
8.56815e-12
1.15699e-11
1.26481e-11
1.21838e-11
1.09e-11
1.48483e-11
9.35504e-12
1.21261e-11
9.16526e-12
1.33643e-11
9.99056e-12
1.30282e-11
8.19641e-12
1.05231e-11
6.12452e-12
9.52656e-12
7.26441e-12
8.75827e-12
7.5666e-12
6.20302e-12
4.63682e-12
5.76717e-12
2.20194e-12
2.33165e-12
5.24232e-12
2.96253e-12
5.60846e-12
1.61408e-12
3.15455e-12
2.3234e-12
3.00106e-12
2.02643e-13
1.6984e-13
8.1127e-13
1.28147e-12
4.5184e-12
2.71661e-12
4.8241e-12
4.86645e-12
1.03133e-11
5.17723e-12
6.12649e-12
4.3357e-12
5.83319e-12
5.51438e-12
6.88498e-12
2.95516e-12
6.60155e-12
4.15365e-12
4.66901e-12
5.5669e-12
4.77481e-12
3.68401e-12
5.89076e-12
5.30597e-12
5.98317e-12
8.61082e-12
7.592e-12
9.97002e-12
8.18389e-12
1.05546e-11
5.10017e-12
5.3946e-12
3.40617e-12
6.91057e-12
3.25434e-12
7.14136e-12
5.60168e-12
5.18285e-12
2.28311e-12
3.99735e-12
5.48514e-12
6.04456e-12
9.31631e-12
6.83866e-12
1.01087e-11
9.3639e-12
7.01009e-12
6.82553e-12
5.03104e-12
7.32426e-12
8.36109e-12
8.26212e-12
5.33623e-12
6.28723e-12
5.27127e-12
5.45146e-12
4.61962e-12
2.21503e-12
3.2964e-12
4.33643e-12
5.13956e-12
6.36874e-12
4.19035e-12
2.39867e-12
5.40101e-12
6.67527e-12
3.66259e-12
5.36259e-12
2.7628e-12
2.25138e-12
7.99571e-14
2.6087e-12
3.00272e-12
3.40126e-12
3.48803e-12
9.05179e-13
1.01647e-12
7.82591e-14
2.139e-12
1.14943e-12
2.08608e-12
1.47768e-12
1.3146e-12
2.14209e-12
2.94826e-12
5.56148e-12
5.36704e-12
5.51382e-12
4.30577e-12
6.8764e-13
2.17275e-12
1.31451e-15
4.59601e-12
1.09565e-12
4.8633e-12
3.48661e-12
5.10721e-12
5.45273e-12
5.88619e-12
5.26836e-12
4.62268e-12
2.97947e-12
1.55414e-12
1.63943e-12
1.02049e-12
2.57318e-12
1.32711e-12
5.77838e-13
1.02498e-12
2.39684e-13
2.15016e-12
8.16984e-13
2.02703e-12
8.47079e-13
2.00898e-12
3.1e-12
2.36056e-12
5.00354e-12
6.91483e-13
3.97405e-12
5.40917e-13
7.15743e-13
3.12131e-13
1.77989e-12
1.8624e-12
7.00489e-12
4.21679e-12
6.38862e-12
7.12712e-12
8.47158e-12
9.21963e-12
9.75074e-12
1.18497e-11
8.08852e-12
9.19967e-12
7.68089e-12
1.01965e-11
6.88253e-12
7.28116e-12
4.99627e-12
9.71649e-12
3.19651e-12
5.5797e-12
3.46506e-12
2.09183e-12
6.00663e-13
4.74533e-13
2.89591e-13
9.85528e-13
4.79672e-12
6.67103e-12
6.41959e-12
5.2148e-12
6.8889e-12
6.23784e-12
6.51728e-12
3.48847e-12
6.07012e-12
2.0295e-12
4.94847e-12
1.27163e-12
5.8104e-12
2.56319e-12
5.16543e-12
1.99837e-12
4.11327e-12
1.77786e-12
3.5372e-12
3.00915e-12
4.85136e-12
2.98988e-12
2.24751e-12
4.41125e-12
3.57688e-12
7.15738e-12
4.42591e-12
6.58594e-12
1.12388e-12
5.05933e-12
2.65472e-12
2.38884e-12
3.48588e-12
1.1026e-12
2.84598e-12
1.7078e-12
1.05716e-12
6.0003e-12
5.19063e-12
3.70043e-12
8.29324e-12
4.92906e-12
3.50124e-12
1.03919e-12
4.51017e-13
1.97276e-12
1.71794e-12
1.05494e-12
2.78587e-12
3.05013e-12
2.47058e-12
9.70017e-13
5.9826e-14
4.68639e-13
1.56287e-13
4.48852e-13
1.02188e-14
2.32813e-12
1.80302e-13
8.90802e-13
9.50243e-13
3.10072e-12
1.28126e-12
2.13986e-12
3.41506e-12
1.0991e-12
1.10119e-12
2.31567e-13
4.66686e-13
2.56743e-12
1.24035e-12
3.77024e-12
7.75759e-13
1.01826e-12
1.57376e-13
1.19293e-12
3.66572e-12
2.43037e-12
6.79734e-12
3.08465e-12
4.0509e-12
4.47793e-12
3.02448e-12
3.29894e-12
2.56897e-12
5.24704e-12
5.40085e-12
4.07306e-12
7.19626e-12
8.07503e-12
7.37384e-12
9.29954e-12
7.43698e-12
9.53739e-12
6.63572e-12
7.89499e-12
7.59359e-12
6.62086e-12
5.44273e-12
6.01481e-12
2.72712e-12
5.61285e-12
6.00246e-12
6.24567e-12
8.63873e-12
4.07281e-12
7.3654e-12
3.10701e-12
5.67326e-12
5.02566e-12
1.88102e-12
3.54762e-12
2.44001e-12
2.13748e-12
4.82714e-14
1.22935e-12
4.46927e-13
6.39663e-13
1.28792e-12
5.00781e-13
1.49512e-13
2.69899e-12
2.27732e-12
1.8878e-12
2.66064e-12
2.9926e-12
3.92372e-12
9.70401e-13
1.53171e-12
2.82343e-12
2.14741e-12
8.48279e-13
2.03437e-12
4.84277e-12
1.6401e-12
8.61556e-13
3.31e-12
6.21619e-13
1.20406e-12
6.27462e-13
1.24762e-12
9.0054e-13
6.46509e-12
1.07204e-11
2.55282e-11
6.54038e-11
1.67432e-10
4.20823e-10
1.03631e-09
2.52388e-09
6.06759e-09
1.44105e-08
3.38199e-08
7.84501e-08
1.79842e-07
4.07362e-07
9.11551e-07
2.01461e-06
4.3965e-06
9.47137e-06
2.01367e-05
4.22383e-05
8.73835e-05
0.000178243
0.000358341
0.000709771
0.00138451
0.00265852
0.00502268
0.00933159
0.0170393
0.0305598
0.0537962
0.0928806
0.157147
0.260312
0.421742
0.667541
1.03098
1.55151
2.27118
3.22603
4.42995
5.86771
7.51341
9.34617
11.3471
13.496
15.7722
18.1562
20.6304
23.1797
25.7916
28.4557
31.1635
33.9083
36.6845
39.4875
42.3136
45.1597
48.0231
50.9017
53.7935
56.6968
59.6101
62.5323
65.462
68.3982
71.34
74.2864
77.2366
80.1897
83.145
86.1018
89.0592
92.0166
94.9732
97.9283
100.881
103.831
106.777
109.718
112.654
115.583
118.505
121.418
124.322
127.215
130.096
132.964
135.817
138.653
141.471
144.269
147.044
149.795
152.519
155.213
157.873
160.498
163.082
165.623
168.115
170.554
172.933
175.251
177.495
179.663
181.747
183.738
185.633
187.416
189.086
190.632
192.046
193.325
194.462
195.453
196.301
197.004
197.572
198.014
198.342
198.572
198.716
198.798
198.837
198.847
198.847
198.845
198.838
198.824
198.794
198.748
198.703
198.669
198.641
198.619
198.604
198.596
198.59
198.587
198.585
198.583
198.582
198.581
198.58
198.579
198.577
198.576
198.575
198.574
198.573
198.572
198.571
198.571
198.57
198.569
198.569
198.568
198.567
198.567
198.566
198.565
198.563
198.562
198.561
198.56
198.559
198.557
198.556
198.555
198.554
198.553
198.552
198.551
198.55
198.549
198.549
198.549
198.548
198.547
198.546
198.545
198.544
198.543
198.543
198.543
198.543
198.542
198.54
198.54
198.54
198.539
198.541
198.554
198.575
198.623
198.741
198.939
198.939
198.7
198.532
198.479
198.483
198.479
198.47
198.491
198.529
198.535
198.507
198.496
198.525
198.547
198.522
198.487
198.497
198.529
198.525
198.487
198.474
198.505
198.528
198.502
198.469
198.485
198.52
198.511
198.47
198.462
198.497
198.513
198.477
198.441
198.459
198.495
198.481
198.433
198.418
198.448
198.464
198.426
198.383
198.392
198.42
198.399
198.344
198.323
198.348
198.351
198.296
198.245
198.248
198.263
198.22
198.147
198.115
198.123
198.101
198.02
197.946
197.922
197.91
197.839
197.734
197.665
197.63
197.566
197.436
197.309
197.225
197.148
196.996
196.789
196.623
196.504
196.351
196.069
195.763
195.534
195.343
194.991
194.455
193.982
193.653
193.219
192.166
190.57
188.085
182.734
166.424
114.514
43.9968
11.6978
2.89088
0.690517
0.163283
0.0385055
0.00907511
0.00213865
0.000503967
0.00011875
2.79783e-05
6.5913e-06
1.55269e-06
3.65734e-07
8.61424e-08
2.02875e-08
4.77787e-09
1.12745e-09
2.66491e-10
6.3583e-11
1.48321e-11
3.23726e-12
3.01279e-12
7.39272e-13
3.3878e-12
7.05944e-13
1.64541e-12
4.41983e-12
3.23326e-12
3.68752e-12
4.56993e-12
2.68916e-12
1.10786e-12
2.97441e-12
2.62155e-12
4.6573e-13
5.80686e-13
1.26315e-12
5.60937e-13
3.46536e-12
1.16592e-12
5.72197e-13
2.65692e-12
6.88567e-13
1.27895e-13
2.63448e-12
9.91346e-13
2.22643e-12
4.18512e-13
4.87232e-12
1.72455e-12
4.21609e-12
8.70266e-13
1.90952e-12
3.14689e-12
1.27114e-12
7.62425e-13
3.23523e-12
5.37244e-12
6.12911e-12
2.76661e-12
1.41944e-12
2.78713e-12
3.1043e-12
4.66822e-12
7.02282e-12
6.85893e-12
3.54397e-12
6.05813e-12
2.7382e-12
1.9996e-12
1.02459e-12
3.03409e-12
7.8592e-13
5.03896e-12
1.34427e-12
1.34915e-12
1.82084e-12
2.62741e-12
3.36942e-12
4.604e-12
4.91751e-12
6.28175e-12
3.28816e-12
5.74534e-12
1.42778e-12
7.42623e-13
3.03043e-12
4.90307e-13
6.56441e-12
4.48947e-14
3.4566e-12
1.22589e-12
9.67683e-14
5.77694e-13
3.36442e-13
1.139e-12
2.25769e-12
2.14421e-12
4.74331e-12
2.13704e-13
5.026e-13
8.80701e-13
8.51971e-13
1.53271e-13
3.39481e-12
3.56378e-12
3.34877e-12
2.76486e-12
6.44855e-13
2.33392e-12
2.14393e-12
5.71843e-12
3.94648e-12
8.29326e-12
2.31939e-12
5.21685e-12
1.43854e-12
2.62658e-12
5.29176e-13
2.75195e-12
1.79384e-13
1.21864e-12
2.64353e-12
3.66763e-12
3.0497e-12
3.6122e-12
3.5256e-12
2.94322e-12
3.14747e-12
9.41452e-13
6.30425e-12
5.57895e-12
4.51741e-12
1.48903e-12
4.43884e-13
2.87342e-12
1.49253e-12
5.03904e-12
1.35167e-12
4.38714e-12
2.64762e-12
9.68433e-13
1.76595e-13
1.22699e-12
2.17383e-12
2.14798e-12
2.99602e-12
3.02181e-13
2.69089e-12
2.12419e-12
1.38291e-13
5.40728e-12
2.16057e-12
3.92888e-13
9.68111e-13
1.62458e-12
2.84488e-12
6.21052e-12
6.95213e-13
2.69775e-12
1.84069e-12
1.27899e-12
1.39977e-12
2.7631e-13
1.33787e-12
2.34134e-12
1.78464e-12
5.48205e-13
1.30636e-12
8.6854e-13
2.34164e-12
1.40751e-12
4.91021e-12
3.42452e-12
1.81852e-12
2.18026e-13
1.66873e-12
1.22367e-12
6.60896e-13
9.39667e-13
2.93606e-12
1.29946e-12
4.34391e-12
4.98323e-12
2.42824e-12
2.56584e-12
3.47381e-12
4.1336e-12
3.35926e-12
2.0506e-12
3.46285e-12
1.29332e-12
1.62654e-12
1.69192e-12
2.20681e-12
1.38472e-12
3.08758e-12
4.20928e-12
6.51746e-12
6.27243e-12
5.38784e-12
4.17722e-12
3.57058e-12
4.02334e-12
6.75896e-12
4.64511e-12
8.65181e-12
8.25053e-12
1.09319e-11
7.37632e-12
8.18495e-12
7.71707e-12
4.35188e-12
2.70378e-12
4.12885e-12
4.91894e-12
2.90992e-12
4.25655e-13
7.7152e-15
6.43911e-13
1.52376e-12
2.61634e-13
1.60815e-12
5.34917e-12
5.35541e-12
6.475e-12
4.86051e-12
6.66398e-12
7.49736e-12
9.56196e-12
8.44549e-12
6.80524e-12
7.04972e-12
3.9287e-12
4.36728e-12
5.1975e-12
2.81418e-12
4.1568e-12
1.14333e-12
9.69598e-13
7.1912e-13
2.93981e-12
1.8356e-12
3.28564e-13
1.65848e-12
4.48346e-13
1.99414e-12
4.65269e-12
5.02076e-12
3.67607e-12
2.5206e-12
4.39011e-13
4.50447e-12
1.93217e-12
1.86311e-12
2.39313e-12
3.97829e-12
8.3934e-13
2.82737e-13
1.40716e-13
1.54171e-12
5.94493e-13
1.99009e-12
2.96969e-12
1.60135e-12
5.98438e-12
4.60894e-12
3.40702e-12
2.48815e-12
1.97311e-12
2.69615e-13
6.13415e-13
2.59192e-12
2.12116e-12
4.38443e-12
4.87903e-12
6.36059e-12
7.81237e-12
9.78745e-12
1.1053e-11
1.04183e-11
8.66395e-12
6.81033e-12
6.85573e-12
4.17754e-12
6.16512e-12
4.61644e-12
3.52734e-12
4.26111e-12
2.58786e-12
4.60635e-12
1.86918e-12
3.01055e-12
3.64824e-12
2.33319e-12
3.87165e-12
2.04373e-12
3.17863e-12
6.27748e-13
1.98188e-12
1.80522e-12
1.05495e-12
3.94261e-13
1.47685e-12
3.19119e-14
1.10636e-12
2.25852e-12
1.15824e-12
5.2365e-12
3.29208e-12
5.76604e-12
2.06687e-12
4.89591e-12
3.51976e-12
3.43909e-12
2.50386e-12
2.94072e-12
3.26737e-12
4.92351e-12
2.82073e-12
2.2219e-12
5.37886e-12
5.05836e-12
5.95118e-12
3.8926e-12
7.69555e-12
8.3336e-12
7.70101e-12
5.07786e-12
8.28865e-12
7.43364e-12
8.217e-12
6.46614e-12
1.02149e-11
1.08394e-11
1.37916e-11
1.31166e-11
1.3925e-11
1.39225e-11
1.41075e-11
1.40349e-11
1.3684e-11
1.45922e-11
1.51437e-11
1.52322e-11
1.63396e-11
1.84882e-11
1.56488e-11
1.5104e-11
1.61249e-11
1.86495e-11
1.39816e-11
1.60487e-11
1.50499e-11
1.96724e-11
1.59918e-11
2.08269e-11
2.03448e-11
)
;

boundaryField
{
    sides
    {
        type            calculated;
        value           nonuniform List<scalar> 2(2.03448e-11 1.4474e-11);
    }
    empty
    {
        type            empty;
    }
}


// ************************************************************************* //
