/*--------------------------------*- C++ -*----------------------------------*\
| =========                 |                                                 |
| \\      /  F ield         | OpenFOAM: The Open Source CFD Toolbox           |
|  \\    /   O peration     | Version:  4.1                                   |
|   \\  /    A nd           | Web:      www.OpenFOAM.org                      |
|    \\/     M anipulation  |                                                 |
\*---------------------------------------------------------------------------*/
FoamFile
{
    version     2.0;
    format      ascii;
    class       volScalarField;
    location    "0.0026";
    object      p;
}
// * * * * * * * * * * * * * * * * * * * * * * * * * * * * * * * * * * * * * //

dimensions      [1 -1 -2 0 0 0 0];

internalField   nonuniform List<scalar> 
1000
(
100000
100000
100000
100000
100000
100000
100000
100000
100000
100000
100000
100000
100000
100000
100000
100000
100000
100000
100000
100000
100000
100000
100000
100000
100000
100000
100000
100000
100000
100000
100000
100000
100000
100000
100000
100000
100000
100000
100000
100000
100000
100000
100000
100000
100000
100000
100000
100000
100000
100000
100000
100000
100000
100000
100000
100000
100000
100000
100000
100000
100000
100000
100000
100000
100000
100000
100000
100000
100000
100000
100000
100000
100000
100000
100000
100000
100000
100000
100000
100000
100000
100000
100000
100000
100000
100000
100000
100000
100000
100000
100000
100000
100000
100000
100000
100000
100000
100000
100000
100000
100000
100000
100000
100000
100000
100000
100000
100000
100000
100000
100000
100000
100000
100000
100000
100000
100000
100000
100000
100000
100000
100000
100000
100000
100000
100000
100000
100000
100000
100000
100000
100000
100000
100000
100000
100000
100000
100000
100000
100000
100000
100000
100000
100000
100000
100000
100000
100000
100000
100000
100000
100000
100000
100000
100000
100000
100000
100000
100000
100000
100000
100000
100000
100000
100000
100000
100000
100000
100000
100000
100000
100000
100000
100000
100000
100000
100000
100000
100000
100000
100000
100000
100000
100000
100000
100000
100000
100000
100000
100000
100000
100000
100000
100000
100000
100000
100000
100000
100000
100000
100000
100000
100000
100000
100000
100000
100000
100000
100000
100000
100000
100000
100000
100000
100000
100000
100000
100000
100000
100000
100000
100000
100000
100000
100000
100000
100000
100000
100000
100000
100000
100000
100000
100000
100000
100000
100000
100000
100000
100000
100000
100000
100000
100000
100000
100000
100000
100000
100000
100000
100000
100000
100000
100000
100000
100000
100000
100000
100000
100000
100000
100000
100000
100000
100000
100000
100000
100000
100000
100000
100000
100000
100000
100000
100000
100000
100000
100000
100000
100000
100000
100000
100000
100000
100000
100000
100000
100000
100000
100000
100000
100000
100000
100000
100000
100000
100000
100000
100000
100000
100000
100000
100000
100000
100000
100000
100000
100000
100000
100000
100000
100000
100000
100000
100000
100000
100000
100000
100000
100000
100000
100000
100000
100000
100000
100000
100000
100000
100000
100000
100000
100000
100000
100000
100000
100000
100000
100000
100000
100000
100000
100000
100000
100000
100000
100000
100000
100000
100000
100000
100000
100000
100000
100000
100000
100000
100000
100000
100000
100000
100000
100000
100000
100000
100000
100000
100000
100000
100000
100000
100000
100000
99999.9
99999.9
99999.8
99999.5
99999.1
99998.3
99996.8
99994.2
99989.5
99981.5
99968
99945.8
99910.2
99854.4
99769.3
99643.4
99462.9
99213.1
98881
98461.5
97962.7
97395.8
96768.6
96088.2
95362.5
94599.4
93806.3
92989.5
92154.7
91306.4
90448.4
89583.6
88714.5
87843
86970.8
86099.1
85228.9
84361.3
83496.8
82636.2
81779.9
80928.4
80082.1
79241.4
78406.4
77577.6
76755
75939
75129.6
74327.2
73531.7
72743.5
71962.5
71189
70423
69664.8
68914.3
68171.8
67437.3
66711
65993
65283.4
64582.4
63890.2
63206.8
62532.5
61867.5
61212
60566.2
59930.3
59304.7
58689.5
58085.3
57492.2
56910.7
56341.3
55784.5
55240.7
54710.6
54194.7
53694.2
53208.9
52741.1
52289.7
51858.1
51445.4
51053.7
50683.5
50336.3
50013.6
49715.8
49444.4
49200.2
48983.6
48794.7
48633.8
48499.9
48391.2
48307.2
48244.6
48199.6
48171.1
48155.2
48147.4
48145.7
48145.8
48146.2
48147.2
48150.1
48154.5
48160.9
48169.1
48176.9
48182.5
48186.3
48188.8
48190.3
48191.1
48191.6
48192
48192.2
48192.5
48192.7
48192.8
48192.9
48193
48193.1
48193.3
48193.4
48193.6
48193.7
48193.9
48194.1
48194.3
48194.5
48194.7
48194.9
48195.1
48195.2
48195.3
48195.4
48195.4
48195.5
48195.5
48195.5
48195.5
48195.4
48195.6
48195.7
48195.7
48195.6
48195.7
48195.8
48195.7
48195.6
48196.2
48196.2
48196.2
48196.2
48196.2
48196.1
48196.1
48196.2
48196.2
48196.3
48196.3
48196.1
48195.8
48195.9
48196.3
48196.4
48196.6
48196
48196.7
48199.7
48206.6
48213.2
48188.3
48184.4
48181.9
48200
48205.6
48199.1
48188.8
48194.7
48206.6
48205.3
48189.7
48187.1
48202.7
48209.5
48195.5
48184.7
48193.6
48207.7
48205.3
48186.9
48185.2
48202.7
48208.9
48194
48182.8
48192.9
48207.9
48202.5
48183.4
48183.8
48203.5
48207.9
48189.3
48179.6
48192.3
48206.9
48200.7
48180.1
48179.2
48198.4
48204.3
48186.3
48174.8
48184.5
48199.9
48192.6
48171.6
48171.1
48190
48194
48171
48160.9
48171.7
48185.9
48172.5
48150.9
48150.7
48168.3
48169.5
48141.5
48131.8
48137.6
48150.1
48132.4
48107.8
48104.1
48112.3
48112.3
48074.8
48062
48060.1
48069.4
48042.5
48000.3
47988.7
47988.2
47990.3
47915.3
47876.4
47864.4
47874.6
47816.5
47706.8
47673.7
47668.9
47658.9
47441.7
47224.4
46920.3
46337.6
44644.4
37171.3
28568.3
25962.9
25235.8
25056.2
25013.3
25003.1
25000.7
25000.2
25000
25000
25000
25000
25000
25000
25000
25000
25000
25000
25000
25000
25000
25000
25000
25000
25000
25000
25000
25000
25000
25000
25000
25000
25000
25000
25000
25000
25000
25000
25000
25000
25000
25000
25000
25000
25000
25000
25000
25000
25000
25000
25000
25000
25000
25000
25000
25000
25000
25000
25000
25000
25000
25000
25000
25000
25000
25000
25000
25000
25000
25000
25000
25000
25000
25000
25000
25000
25000
25000
25000
25000
25000
25000
25000
25000
25000
25000
25000
25000
25000
25000
25000
25000
25000
25000
25000
25000
25000
25000
25000
25000
25000
25000
25000
25000
25000
25000
25000
25000
25000
25000
25000
25000
25000
25000
25000
25000
25000
25000
25000
25000
25000
25000
25000
25000
25000
25000
25000
25000
25000
25000
25000
25000
25000
25000
25000
25000
25000
25000
25000
25000
25000
25000
25000
25000
25000
25000
25000
25000
25000
25000
25000
25000
25000
25000
25000
25000
25000
25000
25000
25000
25000
25000
25000
25000
25000
25000
25000
25000
25000
25000
25000
25000
25000
25000
25000
25000
25000
25000
25000
25000
25000
25000
25000
25000
25000
25000
25000
25000
25000
25000
25000
25000
25000
25000
25000
25000
25000
25000
25000
25000
25000
25000
25000
25000
25000
25000
25000
25000
25000
25000
25000
25000
25000
25000
25000
25000
25000
25000
25000
25000
25000
25000
25000
25000
25000
25000
25000
25000
25000
25000
25000
25000
25000
25000
25000
25000
25000
25000
25000
25000
25000
25000
25000
25000
25000
25000
25000
25000
25000
25000
25000
25000
25000
25000
25000
25000
25000
25000
25000
25000
25000
25000
25000
25000
25000
25000
25000
25000
25000
25000
25000
25000
25000
25000
25000
25000
25000
25000
25000
25000
25000
25000
25000
25000
25000
25000
25000
25000
25000
25000
25000
25000
25000
25000
25000
25000
25000
25000
25000
25000
25000
25000
25000
25000
25000
25000
25000
25000
25000
25000
25000
25000
25000
25000
25000
25000
25000
25000
25000
25000
25000
25000
25000
25000
25000
25000
25000
25000
25000
25000
25000
25000
25000
25000
25000
25000
25000
25000
25000
25000
25000
25000
25000
25000
25000
25000
25000
25000
25000
25000
25000
25000
25000
25000
25000
25000
25000
25000
25000
)
;

boundaryField
{
    sides
    {
        type            zeroGradient;
    }
    empty
    {
        type            empty;
    }
}


// ************************************************************************* //
