/*--------------------------------*- C++ -*----------------------------------*\
| =========                 |                                                 |
| \\      /  F ield         | OpenFOAM: The Open Source CFD Toolbox           |
|  \\    /   O peration     | Version:  4.1                                   |
|   \\  /    A nd           | Web:      www.OpenFOAM.org                      |
|    \\/     M anipulation  |                                                 |
\*---------------------------------------------------------------------------*/
FoamFile
{
    version     2.0;
    format      ascii;
    class       surfaceScalarField;
    location    "0.0026";
    object      phi;
}
// * * * * * * * * * * * * * * * * * * * * * * * * * * * * * * * * * * * * * //

dimensions      [1 0 -1 0 0 0 0];

internalField   nonuniform List<scalar> 
999
(
-5.37668e-11
-6.10072e-11
-6.34088e-11
-6.23857e-11
-6.35652e-11
-6.26414e-11
-6.41975e-11
-5.85629e-11
-5.57279e-11
-5.479e-11
-5.45768e-11
-6.04743e-11
-5.53584e-11
-5.59126e-11
-5.45697e-11
-5.51452e-11
-6.03535e-11
-5.20615e-11
-4.50555e-11
-4.47642e-11
-4.51266e-11
-4.76916e-11
-4.36486e-11
-4.44729e-11
-4.2661e-11
-4.70379e-11
-3.99751e-11
-3.53708e-11
-2.83222e-11
-3.53708e-11
-4.19149e-11
-4.42739e-11
-3.91296e-11
-4.55387e-11
-4.38547e-11
-3.55769e-11
-3.85754e-11
-3.71116e-11
-4.24478e-11
-4.03659e-11
-3.75024e-11
-3.10791e-11
-2.98641e-11
-2.76117e-11
-2.79172e-11
-2.78746e-11
-2.90612e-11
-2.31708e-11
-1.89431e-11
-1.82325e-11
-1.52198e-11
-6.92069e-12
-1.4218e-11
-1.43388e-11
-1.4353e-11
-1.30242e-11
-8.95284e-12
-8.62599e-12
-9.91918e-12
-5.1017e-12
-4.9738e-14
1.38556e-12
4.15668e-12
1.10063e-11
1.139e-11
1.26619e-11
1.76072e-11
2.62403e-11
2.67448e-11
2.06626e-11
1.67901e-11
1.80691e-11
1.97886e-11
2.24745e-11
1.62288e-11
1.70033e-11
1.96962e-11
1.44524e-11
1.87725e-11
1.75504e-11
1.37916e-11
1.66693e-11
1.96394e-11
2.09184e-11
2.44142e-11
2.77822e-11
2.93738e-11
3.32392e-11
3.3971e-11
2.52172e-11
1.93836e-11
1.61222e-11
1.65912e-11
1.69251e-11
1.96891e-11
2.19842e-11
1.73941e-11
1.4218e-11
9.99734e-12
1.64349e-11
2.03002e-11
2.81162e-11
2.64109e-11
3.07523e-11
3.51363e-11
2.6418e-11
2.51887e-11
1.98455e-11
2.18492e-11
2.83293e-11
2.76756e-11
2.48619e-11
1.89857e-11
2.05844e-11
1.95968e-11
1.71099e-11
1.08713e-11
9.89786e-12
1.43814e-11
1.51417e-11
2.14513e-11
1.72449e-11
1.12266e-11
1.46585e-11
2.13163e-11
1.70672e-11
1.64349e-11
1.35429e-11
9.66338e-12
3.38218e-12
5.14433e-12
1.01679e-11
1.06724e-11
1.23421e-11
8.05045e-12
-3.62377e-13
-1.69109e-12
-3.87956e-12
-5.98277e-12
-5.15854e-12
-7.16938e-12
-1.35003e-13
5.6275e-12
8.5052e-12
1.37987e-11
1.91136e-11
2.03286e-11
1.62288e-11
8.33467e-12
5.1088e-12
3.46034e-12
8.74678e-12
9.23706e-12
1.01466e-11
1.5099e-11
1.45377e-11
1.90852e-11
1.90212e-11
1.85736e-11
1.86446e-11
1.25908e-11
8.41993e-12
5.02354e-12
4.92406e-12
-2.80664e-12
-7.77334e-12
-7.81597e-13
-1.35003e-12
-1.99663e-12
3.78009e-12
5.39302e-12
5.53513e-12
4.23483e-12
4.49063e-12
8.93152e-12
1.04166e-11
1.35145e-11
9.11626e-12
8.57625e-12
7.31148e-12
-1.63425e-13
-9.59233e-13
4.10694e-12
5.64881e-12
1.59304e-11
2.09397e-11
1.67901e-11
2.36184e-11
2.80451e-11
2.95017e-11
3.38858e-11
3.80638e-11
3.56195e-11
2.89617e-11
2.94662e-11
3.21805e-11
2.82938e-11
2.55582e-11
2.01439e-11
2.67377e-11
2.22471e-11
1.60014e-11
1.5099e-11
8.49809e-12
5.86198e-12
1.5774e-12
9.59233e-13
2.58638e-12
1.04663e-11
1.90212e-11
2.38316e-11
1.95968e-11
2.12168e-11
2.18137e-11
2.34976e-11
1.65628e-11
1.75291e-11
1.31095e-11
1.29106e-11
1.0921e-11
1.16032e-11
5.7554e-12
4.25615e-12
5.94014e-12
3.70193e-12
9.26548e-12
1.03739e-11
1.04166e-11
1.31024e-11
1.4964e-11
8.1215e-12
1.25553e-11
1.31237e-11
1.93126e-11
1.9476e-11
2.00373e-11
1.25979e-11
1.13971e-11
4.51905e-12
-5.68434e-13
-2.089e-12
-8.13571e-12
-6.6791e-12
-1.86162e-12
4.41958e-12
1.30171e-11
1.9341e-11
1.55609e-11
2.15366e-11
2.23253e-11
1.44951e-11
8.2423e-12
2.55795e-12
3.9222e-12
6.96332e-12
4.46931e-12
-2.84217e-12
4.12115e-13
8.10019e-13
-5.27223e-12
-2.32347e-12
1.07292e-12
3.62377e-13
-9.37916e-13
-4.40536e-13
3.08376e-12
5.37881e-12
-1.74083e-12
3.55271e-13
6.09646e-12
8.32046e-12
5.39302e-12
1.0651e-11
7.24754e-12
4.40536e-12
1.62004e-12
4.9738e-14
-6.91358e-12
-1.62714e-12
-5.33618e-12
-4.77485e-12
-3.19744e-13
-1.89715e-12
-1.40687e-12
3.87956e-12
1.07647e-11
1.56106e-11
1.76499e-11
1.31095e-11
1.39551e-11
1.35216e-11
1.03881e-11
1.06937e-11
1.42819e-11
1.75433e-11
1.62004e-11
2.0286e-11
2.60556e-11
2.75833e-11
2.9182e-11
2.82299e-11
3.00275e-11
2.81659e-11
2.59419e-11
2.61124e-11
2.61124e-11
1.97531e-11
2.06626e-11
1.4829e-11
1.46656e-11
1.99165e-11
2.2105e-11
2.45848e-11
2.3654e-11
1.85807e-11
1.87725e-11
1.53477e-11
1.92486e-11
1.112e-11
1.01466e-11
9.92628e-12
8.1144e-12
4.0572e-12
1.9682e-12
3.12639e-12
2.34479e-12
2.6219e-12
1.9611e-12
-1.15108e-12
-5.84777e-12
-7.65255e-12
-7.78755e-12
-7.38964e-12
-1.02318e-11
-1.22853e-11
-5.42855e-12
-8.81073e-13
-7.31859e-12
-9.72733e-12
-4.39115e-12
-5.42855e-12
-1.16813e-11
-1.22995e-11
-4.12115e-12
4.64695e-12
7.25464e-12
-1.19371e-12
-2.89901e-12
9.30811e-13
3.32534e-12
1.33582e-11
2.72209e-11
5.8705e-11
1.47033e-10
3.77426e-10
9.54714e-10
2.36912e-09
5.79698e-09
1.40086e-08
3.34365e-08
7.88582e-08
1.83814e-07
4.23476e-07
9.6408e-07
2.16847e-06
4.8179e-06
1.05711e-05
2.29e-05
4.89649e-05
0.00010331
0.000215019
0.000441313
0.000892901
0.00178027
0.00349639
0.00676115
0.0128673
0.0240881
0.0443328
0.0801675
0.142342
0.247981
0.423549
0.708607
1.16011
1.85662
2.90106
4.42012
6.55702
9.45333
13.2103
17.8058
23.1097
29.0232
35.4705
42.3705
49.6394
57.1971
64.9714
72.9002
80.9318
89.0238
97.1421
105.259
113.354
121.408
129.408
137.342
145.202
152.979
160.667
168.262
175.758
183.153
190.444
197.627
204.702
211.667
218.519
225.259
231.885
238.396
244.792
251.073
257.237
263.286
269.218
275.033
280.732
286.315
291.781
297.13
302.363
307.479
312.479
317.363
322.13
326.78
331.314
335.731
340.031
344.214
348.279
352.226
356.055
359.764
363.354
366.821
370.169
373.387
376.495
379.449
382.319
384.997
387.615
390.036
392.333
394.557
396.49
398.469
400.145
401.699
403.229
404.403
405.558
406.602
407.333
408.054
408.662
409.027
409.352
409.635
409.765
409.811
409.885
409.909
409.891
409.861
409.846
409.839
409.834
409.784
409.734
409.711
409.687
409.655
409.636
409.624
409.607
409.594
409.587
409.582
409.571
409.562
409.557
409.55
409.538
409.528
409.521
409.513
409.501
409.491
409.484
409.473
409.462
409.454
409.443
409.431
409.421
409.409
409.393
409.378
409.366
409.35
409.329
409.309
409.296
409.278
409.253
409.231
409.208
409.188
409.171
409.155
409.114
409.062
409.043
409.032
409.018
408.994
408.935
408.862
408.804
408.771
408.753
408.729
408.665
408.494
408.319
408.207
408.159
408.143
408.211
408.526
408.768
408.81
408.543
405.615
391.681
362.316
336.925
317.171
302.495
291.842
284.246
279.505
276.948
275.33
274.075
273.389
273.328
273.531
273.424
273.003
272.975
273.424
273.532
273.162
272.978
273.212
273.516
273.437
273.017
273.012
273.478
273.56
273.096
272.947
273.285
273.559
273.381
272.975
272.999
273.488
273.572
273.072
272.926
273.206
273.524
273.388
272.95
272.946
273.427
273.514
272.984
272.844
273.152
273.462
273.222
272.806
272.84
273.323
273.365
272.755
272.661
272.968
273.276
272.882
272.51
272.523
272.95
273.013
272.328
272.264
272.402
272.757
272.277
271.849
271.851
272.087
272.214
271.141
271.004
271.118
271.595
270.957
269.803
269.778
270.16
270.623
267.971
267.521
267.679
268.579
267.068
262.918
261.067
256.567
246.584
216.829
74.9251
22.4856
5.6638
1.36114
0.322491
0.0760906
0.0179344
0.00422641
0.000995975
0.000234693
5.52989e-05
1.30284e-05
3.06923e-06
7.22988e-07
1.70295e-07
4.01087e-08
9.44602e-09
2.22547e-09
5.2551e-10
1.24377e-10
2.95106e-11
6.95799e-12
2.3288e-12
1.53833e-12
1.88827e-12
1.70175e-12
1.04272e-12
2.74625e-12
3.26317e-12
2.87415e-12
3.62732e-12
3.39817e-12
1.46549e-12
1.80833e-12
2.46558e-12
1.54721e-12
-1.01252e-13
-7.10543e-13
-9.9476e-13
-1.48148e-12
-2.22755e-12
-6.99885e-13
1.00719e-12
7.42517e-13
-3.78364e-13
1.22213e-12
6.18172e-13
6.05738e-13
7.79821e-13
1.95755e-12
2.60236e-12
3.03402e-12
1.78879e-12
1.53655e-12
-5.00933e-13
-2.23288e-12
-6.8745e-13
-1.95399e-12
-3.80851e-12
-5.14433e-12
-3.892e-12
-1.78524e-12
-2.00195e-12
-2.35367e-12
-3.30935e-12
-4.81037e-12
-6.3487e-12
-4.52083e-12
-4.02878e-12
-4.06253e-12
-1.92202e-12
-1.48681e-12
-1.51879e-12
-1.84919e-12
-2.44604e-12
-2.9079e-12
-1.18838e-12
-1.34648e-12
3.96128e-13
2.36611e-12
3.8618e-12
3.80851e-12
5.11058e-12
3.8618e-12
4.25793e-12
2.82441e-12
1.15108e-12
-1.15108e-12
-1.57385e-12
-2.85993e-12
-3.07487e-12
-1.33404e-12
-1.15286e-12
7.44294e-13
1.74083e-13
6.2883e-13
4.88498e-13
-3.89022e-13
-2.09432e-12
-2.71072e-12
-2.24709e-12
-1.10134e-13
2.45137e-13
-2.13163e-14
-3.55271e-13
-1.60938e-12
-3.06244e-12
-2.87059e-12
-2.83862e-12
-1.30562e-12
-1.40332e-12
-2.11564e-12
-3.14238e-12
-4.36984e-12
-5.52269e-12
-4.26326e-12
-3.54738e-12
-1.84031e-12
-3.92575e-13
-1.50102e-12
-1.27542e-12
-1.32694e-12
7.51399e-13
1.62537e-12
-5.93303e-13
-2.77645e-12
-3.27205e-12
-2.75335e-12
-3.12461e-12
-2.35545e-12
-1.85096e-12
-3.44791e-12
-4.73221e-12
-4.67182e-12
-2.91145e-12
-3.32179e-13
1.34115e-12
1.85452e-12
2.52598e-12
3.16547e-12
2.37321e-12
3.0429e-12
1.39977e-12
6.2883e-13
-5.91527e-13
-1.30029e-12
-7.10543e-15
-5.25802e-13
-1.14397e-12
-1.56852e-12
-1.83853e-12
-1.17772e-12
-2.22755e-12
-3.22409e-12
-1.26832e-12
-5.15143e-13
-1.19549e-12
-1.84563e-12
-4.00568e-12
-3.28271e-12
-1.29852e-12
-4.65405e-13
1.55076e-12
-7.99361e-14
-6.16396e-13
-9.18376e-13
-1.38023e-12
-2.41585e-13
5.77316e-13
-8.98837e-13
-8.01137e-13
4.83169e-13
1.85096e-12
2.92388e-12
3.7641e-12
2.04636e-12
8.56204e-13
4.81393e-13
1.51346e-12
6.89226e-13
7.58504e-13
1.803e-12
1.69642e-12
2.49045e-12
4.01634e-12
3.40883e-12
2.01617e-12
2.65921e-12
3.10507e-12
3.68594e-12
2.1867e-12
2.12097e-12
2.15117e-12
1.41931e-12
1.28253e-12
-1.47438e-13
-1.82254e-12
-1.79767e-12
-3.42126e-12
-4.56346e-12
-5.67191e-12
-4.95781e-12
-4.31477e-12
-3.17435e-12
-3.30758e-12
-4.88853e-12
-4.7784e-12
-5.66658e-12
-7.12674e-12
-8.73968e-12
-7.6259e-12
-6.67022e-12
-7.06457e-12
-5.37348e-12
-3.28981e-12
-2.67697e-12
-3.78364e-12
-3.69837e-12
-1.35003e-12
-1.45661e-13
-3.23297e-13
3.94351e-13
6.92779e-13
1.00009e-12
2.78355e-12
4.45333e-12
5.53513e-12
4.67715e-12
5.03597e-12
6.116e-12
7.3932e-12
7.66853e-12
6.90825e-12
5.76428e-12
4.84945e-12
3.58824e-12
4.37339e-12
3.18678e-12
3.44258e-12
1.93268e-12
1.74083e-13
-1.91847e-13
-1.03029e-12
-1.94156e-12
-8.79297e-13
4.99156e-13
1.01252e-12
9.82325e-13
3.00915e-12
4.22595e-12
3.62554e-12
2.66986e-12
1.46727e-12
1.98952e-12
2.86704e-12
1.58806e-12
1.83675e-12
2.55618e-12
2.38387e-12
3.89022e-13
2.66454e-13
-7.42517e-13
-3.97904e-13
-5.24025e-13
3.62377e-13
2.23288e-12
2.97717e-12
4.98446e-12
3.27027e-12
2.38032e-12
2.1565e-12
6.85674e-13
1.19016e-13
1.48859e-12
1.94333e-12
3.03579e-12
3.69837e-12
5.15321e-12
6.19238e-12
7.38609e-12
9.30811e-12
9.2637e-12
7.88702e-12
7.2351e-12
5.54401e-12
5.139e-12
4.26148e-12
4.51728e-12
3.87423e-12
3.05e-12
3.10152e-12
3.2756e-12
2.96652e-12
1.95755e-12
3.10685e-12
2.43361e-12
2.59703e-12
2.73737e-12
2.09255e-12
1.86873e-12
1.07292e-12
1.42641e-12
1.40155e-12
2.27374e-13
-7.53175e-13
-5.13367e-13
-6.73239e-13
5.8975e-13
4.17444e-13
2.0286e-12
3.36797e-12
4.26859e-12
3.17435e-12
2.84572e-12
4.16556e-12
2.58638e-12
2.92388e-12
2.14762e-12
2.84395e-12
3.75167e-12
3.0429e-12
2.57749e-12
2.97184e-12
4.36984e-12
5.03775e-12
4.1176e-12
5.27756e-12
6.65601e-12
7.28306e-12
5.3717e-12
5.72342e-12
7.12852e-12
6.5814e-12
6.69509e-12
6.92957e-12
9.15712e-12
1.06919e-11
1.19318e-11
1.15445e-11
1.22284e-11
1.1946e-11
1.23972e-11
1.20153e-11
1.19798e-11
1.3479e-11
1.27294e-11
1.36975e-11
1.53992e-11
1.47953e-11
1.31894e-11
1.33049e-11
1.53886e-11
1.44311e-11
1.26281e-11
1.3813e-11
1.53264e-11
1.52696e-11
1.579e-11
1.82343e-11
)
;

boundaryField
{
    sides
    {
        type            calculated;
        value           nonuniform List<scalar> 2(1.76834e-11 5.03213e-11);
    }
    empty
    {
        type            empty;
        value           nonuniform 0();
    }
}


// ************************************************************************* //
