/*--------------------------------*- C++ -*----------------------------------*\
| =========                 |                                                 |
| \\      /  F ield         | OpenFOAM: The Open Source CFD Toolbox           |
|  \\    /   O peration     | Version:  4.1                                   |
|   \\  /    A nd           | Web:      www.OpenFOAM.org                      |
|    \\/     M anipulation  |                                                 |
\*---------------------------------------------------------------------------*/
FoamFile
{
    version     2.0;
    format      ascii;
    class       volScalarField;
    location    "0.0026";
    object      T;
}
// * * * * * * * * * * * * * * * * * * * * * * * * * * * * * * * * * * * * * //

dimensions      [0 0 0 1 0 0 0];

internalField   nonuniform List<scalar> 
1000
(
400
400
400
400
400
400
400
400
400
400
400
400
400
400
400
400
400
400
400
400
400
400
400
400
400
400
400
400
400
400
400
400
400
400
400
400
400
400
400
400
400
400
400
400
400
400
400
400
400
400
400
400
400
400
400
400
400
400
400
400
400
400
400
400
400
400
400
400
400
400
400
400
400
400
400
400
400
400
400
400
400
400
400
400
400
400
400
400
400
400
400
400
400
400
400
400
400
400
400
400
400
400
400
400
400
400
400
400
400
400
400
400
400
400
400
400
400
400
400
400
400
400
400
400
400
400
400
400
400
400
400
400
400
400
400
400
400
400
400
400
400
400
400
400
400
400
400
400
400
400
400
400
400
400
400
400
400
400
400
400
400
400
400
400
400
400
400
400
400
400
400
400
400
400
400
400
400
400
400
400
400
400
400
400
400
400
400
400
400
400
400
400
400
400
400
400
400
400
400
400
400
400
400
400
400
400
400
400
400
400
400
400
400
400
400
400
400
400
400
400
400
400
400
400
400
400
400
400
400
400
400
400
400
400
400
400
400
400
400
400
400
400
400
400
400
400
400
400
400
400
400
400
400
400
400
400
400
400
400
400
400
400
400
400
400
400
400
400
400
400
400
400
400
400
400
400
400
400
400
400
400
400
400
400
400
400
400
400
400
400
400
400
400
400
400
400
400
400
400
400
400
400
400
400
400
400
400
400
400
400
400
400
400
400
400
400
400
400
400
400
400
400
400
400
400
400
400
400
400
400
400
400
400
400
400
400
400
400
400
400
400
400
400
400
400
400
400
400
400
400
400
400
400
400
400
400
400
400
400
400
400
400
400
400
400
400
400
400
400
400
400
400
400
400
400
399.999
399.999
399.998
399.996
399.993
399.988
399.979
399.963
399.938
399.897
399.833
399.736
399.591
399.384
399.097
398.714
398.229
397.651
396.991
396.258
395.459
394.602
393.696
392.749
391.768
390.759
389.726
388.675
387.609
386.529
385.439
384.341
383.235
382.123
381.007
379.886
378.762
377.635
376.507
375.376
374.245
373.113
371.981
370.849
369.717
368.585
367.455
366.326
365.199
364.073
362.95
361.829
360.71
359.594
358.482
357.373
356.268
355.167
354.071
352.98
351.894
350.813
349.739
348.672
347.611
346.559
345.515
344.48
343.455
342.44
341.438
340.448
339.47
338.511
337.559
336.647
335.705
334.881
333.905
333.239
332.186
331.683
330.665
330.124
329.419
328.64
328.274
327.531
327.059
326.741
326.153
325.878
325.663
325.281
325.124
325.043
324.857
324.767
324.766
324.741
324.705
324.707
324.724
324.73
324.731
324.736
324.751
324.774
324.789
324.802
324.824
324.835
324.838
324.846
324.856
324.86
324.862
324.869
324.877
324.882
324.885
324.891
324.9
324.905
324.908
324.916
324.926
324.931
324.937
324.948
324.954
324.961
324.972
324.981
324.987
324.998
325.011
325.019
325.027
325.04
325.056
325.066
325.073
325.085
325.106
325.128
325.141
325.148
325.159
325.185
325.218
325.247
325.266
325.275
325.287
325.317
325.374
325.427
325.462
325.479
325.492
325.521
325.616
325.763
325.879
325.943
325.959
325.934
325.772
325.545
325.433
325.461
326.391
332.546
353.225
381.392
407.886
430.909
449.329
463.008
472.494
478.707
482.54
484.724
485.855
486.434
486.749
486.88
486.88
486.847
486.853
486.883
486.866
486.795
486.777
486.821
486.838
486.793
486.75
486.77
486.817
486.805
486.741
486.734
486.791
486.807
486.752
486.715
486.744
486.79
486.777
486.708
486.698
486.754
486.774
486.722
486.68
486.7
486.748
486.732
486.661
486.653
486.708
486.726
486.659
486.622
486.648
486.694
486.66
486.585
486.578
486.629
486.64
486.554
486.522
486.533
486.575
486.534
486.45
486.435
486.456
486.465
486.345
486.302
486.303
486.332
486.259
486.125
486.099
486.083
486.092
485.89
485.764
485.704
485.743
485.657
485.268
485.117
485.145
485.177
484.494
483.741
482.91
481.077
476.702
453.912
416.234
404.411
401.08
400.257
400.061
400.014
400.003
400.001
400
400
400
400
400
400
400
400
400
400
400
400
400
400
400
400
400
400
400
400
400
400
400
400
400
400
400
400
400
400
400
400
400
400
400
400
400
400
400
400
400
400
400
400
400
400
400
400
400
400
400
400
400
400
400
400
400
400
400
400
400
400
400
400
400
400
400
400
400
400
400
400
400
400
400
400
400
400
400
400
400
400
400
400
400
400
400
400
400
400
400
400
400
400
400
400
400
400
400
400
400
400
400
400
400
400
400
400
400
400
400
400
400
400
400
400
400
400
400
400
400
400
400
400
400
400
400
400
400
400
400
400
400
400
400
400
400
400
400
400
400
400
400
400
400
400
400
400
400
400
400
400
400
400
400
400
400
400
400
400
400
400
400
400
400
400
400
400
400
400
400
400
400
400
400
400
400
400
400
400
400
400
400
400
400
400
400
400
400
400
400
400
400
400
400
400
400
400
400
400
400
400
400
400
400
400
400
400
400
400
400
400
400
400
400
400
400
400
400
400
400
400
400
400
400
400
400
400
400
400
400
400
400
400
400
400
400
400
400
400
400
400
400
400
400
400
400
400
400
400
400
400
400
400
400
400
400
400
400
400
400
400
400
400
400
400
400
400
400
400
400
400
400
400
400
400
400
400
400
400
400
400
400
400
400
400
400
400
400
400
400
400
400
400
400
400
400
400
400
400
400
400
400
400
400
400
400
400
400
400
400
400
400
400
400
400
400
400
400
400
400
400
400
400
400
400
400
400
400
400
400
400
400
400
400
400
400
400
400
400
400
400
400
400
400
400
400
400
400
400
400
)
;

boundaryField
{
    sides
    {
        type            zeroGradient;
    }
    empty
    {
        type            empty;
    }
}


// ************************************************************************* //
