/*--------------------------------*- C++ -*----------------------------------*\
| =========                 |                                                 |
| \\      /  F ield         | OpenFOAM: The Open Source CFD Toolbox           |
|  \\    /   O peration     | Version:  4.1                                   |
|   \\  /    A nd           | Web:      www.OpenFOAM.org                      |
|    \\/     M anipulation  |                                                 |
\*---------------------------------------------------------------------------*/
FoamFile
{
    version     2.0;
    format      ascii;
    class       volVectorField;
    location    "0.0026";
    object      U;
}
// * * * * * * * * * * * * * * * * * * * * * * * * * * * * * * * * * * * * * //

dimensions      [0 1 -1 0 0 0 0];

internalField   nonuniform List<vector> 
1000
(
(-1.4474e-11 0 0)
(-1.65194e-11 0 0)
(-1.85274e-11 0 0)
(-1.82175e-11 0 0)
(-1.76111e-11 0 0)
(-1.82111e-11 0 0)
(-1.83592e-11 0 0)
(-1.82625e-11 0 0)
(-1.55346e-11 0 0)
(-1.65943e-11 0 0)
(-1.47362e-11 0 0)
(-1.78578e-11 0 0)
(-1.57957e-11 0 0)
(-1.66124e-11 0 0)
(-1.50425e-11 0 0)
(-1.67255e-11 0 0)
(-1.57592e-11 0 0)
(-1.76053e-11 0 0)
(-1.27693e-11 0 0)
(-1.30549e-11 0 0)
(-1.26556e-11 0 0)
(-1.4258e-11 0 0)
(-1.22004e-11 0 0)
(-1.38227e-11 0 0)
(-1.06094e-11 0 0)
(-1.50306e-11 0 0)
(-1.12924e-11 0 0)
(-1.18165e-11 0 0)
(-8.41037e-12 0 0)
(-8.56815e-12 0 0)
(-1.15699e-11 0 0)
(-1.26481e-11 0 0)
(-1.21838e-11 0 0)
(-1.09e-11 0 0)
(-1.48483e-11 0 0)
(-9.35504e-12 0 0)
(-1.21261e-11 0 0)
(-9.16526e-12 0 0)
(-1.33643e-11 0 0)
(-9.99056e-12 0 0)
(-1.30282e-11 0 0)
(-8.19641e-12 0 0)
(-1.05231e-11 0 0)
(-6.12452e-12 0 0)
(-9.52656e-12 0 0)
(-7.26441e-12 0 0)
(-8.75827e-12 0 0)
(-7.5666e-12 0 0)
(-6.20302e-12 0 0)
(-4.63682e-12 0 0)
(-5.76717e-12 0 0)
(-2.20194e-12 0 0)
(-2.33165e-12 0 0)
(-5.24232e-12 0 0)
(-2.96253e-12 0 0)
(-5.60846e-12 0 0)
(-1.61408e-12 0 0)
(-3.15455e-12 0 0)
(-2.3234e-12 0 0)
(-3.00106e-12 0 0)
(-2.02643e-13 0 0)
(1.6984e-13 0 0)
(8.1127e-13 0 0)
(1.28147e-12 0 0)
(4.5184e-12 0 0)
(2.71661e-12 0 0)
(4.8241e-12 0 0)
(4.86645e-12 0 0)
(1.03133e-11 0 0)
(5.17723e-12 0 0)
(6.12649e-12 0 0)
(4.3357e-12 0 0)
(5.83319e-12 0 0)
(5.51438e-12 0 0)
(6.88498e-12 0 0)
(2.95516e-12 0 0)
(6.60155e-12 0 0)
(4.15365e-12 0 0)
(4.66901e-12 0 0)
(5.5669e-12 0 0)
(4.77481e-12 0 0)
(3.68401e-12 0 0)
(5.89076e-12 0 0)
(5.30597e-12 0 0)
(5.98317e-12 0 0)
(8.61082e-12 0 0)
(7.592e-12 0 0)
(9.97002e-12 0 0)
(8.18389e-12 0 0)
(1.05546e-11 0 0)
(5.10017e-12 0 0)
(5.3946e-12 0 0)
(3.40617e-12 0 0)
(6.91057e-12 0 0)
(3.25434e-12 0 0)
(7.14136e-12 0 0)
(5.60168e-12 0 0)
(5.18285e-12 0 0)
(2.28311e-12 0 0)
(3.99735e-12 0 0)
(5.48514e-12 0 0)
(6.04456e-12 0 0)
(9.31631e-12 0 0)
(6.83866e-12 0 0)
(1.01087e-11 0 0)
(9.3639e-12 0 0)
(7.01009e-12 0 0)
(6.82553e-12 0 0)
(5.03104e-12 0 0)
(7.32426e-12 0 0)
(8.36109e-12 0 0)
(8.26212e-12 0 0)
(5.33623e-12 0 0)
(6.28723e-12 0 0)
(5.27127e-12 0 0)
(5.45146e-12 0 0)
(4.61962e-12 0 0)
(2.21503e-12 0 0)
(3.2964e-12 0 0)
(4.33643e-12 0 0)
(5.13956e-12 0 0)
(6.36874e-12 0 0)
(4.19035e-12 0 0)
(2.39867e-12 0 0)
(5.40101e-12 0 0)
(6.67527e-12 0 0)
(3.66259e-12 0 0)
(5.36259e-12 0 0)
(2.7628e-12 0 0)
(2.25138e-12 0 0)
(7.99571e-14 0 0)
(2.6087e-12 0 0)
(3.00272e-12 0 0)
(3.40126e-12 0 0)
(3.48803e-12 0 0)
(9.05179e-13 0 0)
(-1.01647e-12 0 0)
(-7.82591e-14 0 0)
(-2.139e-12 0 0)
(-1.14943e-12 0 0)
(-2.08608e-12 0 0)
(-1.47768e-12 0 0)
(1.3146e-12 0 0)
(2.14209e-12 0 0)
(2.94826e-12 0 0)
(5.56148e-12 0 0)
(5.36704e-12 0 0)
(5.51382e-12 0 0)
(4.30577e-12 0 0)
(6.8764e-13 0 0)
(2.17275e-12 0 0)
(1.31451e-15 0 0)
(4.59601e-12 0 0)
(1.09565e-12 0 0)
(4.8633e-12 0 0)
(3.48661e-12 0 0)
(5.10721e-12 0 0)
(5.45273e-12 0 0)
(5.88619e-12 0 0)
(5.26836e-12 0 0)
(4.62268e-12 0 0)
(2.97947e-12 0 0)
(1.55414e-12 0 0)
(1.63943e-12 0 0)
(1.02049e-12 0 0)
(-2.57318e-12 0 0)
(-1.32711e-12 0 0)
(5.77838e-13 0 0)
(-1.02498e-12 0 0)
(-2.39684e-13 0 0)
(2.15016e-12 0 0)
(8.16984e-13 0 0)
(2.02703e-12 0 0)
(8.47079e-13 0 0)
(2.00898e-12 0 0)
(3.1e-12 0 0)
(2.36056e-12 0 0)
(5.00354e-12 0 0)
(6.91483e-13 0 0)
(3.97405e-12 0 0)
(5.40917e-13 0 0)
(-7.15743e-13 0 0)
(3.12131e-13 0 0)
(1.77989e-12 0 0)
(1.8624e-12 0 0)
(7.00489e-12 0 0)
(4.21679e-12 0 0)
(6.38862e-12 0 0)
(7.12712e-12 0 0)
(8.47158e-12 0 0)
(9.21963e-12 0 0)
(9.75074e-12 0 0)
(1.18497e-11 0 0)
(8.08852e-12 0 0)
(9.19967e-12 0 0)
(7.68089e-12 0 0)
(1.01965e-11 0 0)
(6.88253e-12 0 0)
(7.28116e-12 0 0)
(4.99627e-12 0 0)
(9.71649e-12 0 0)
(3.19651e-12 0 0)
(5.5797e-12 0 0)
(3.46506e-12 0 0)
(2.09183e-12 0 0)
(6.00663e-13 0 0)
(4.74533e-13 0 0)
(2.89591e-13 0 0)
(9.85528e-13 0 0)
(4.79672e-12 0 0)
(6.67103e-12 0 0)
(6.41959e-12 0 0)
(5.2148e-12 0 0)
(6.8889e-12 0 0)
(6.23784e-12 0 0)
(6.51728e-12 0 0)
(3.48847e-12 0 0)
(6.07012e-12 0 0)
(2.0295e-12 0 0)
(4.94847e-12 0 0)
(1.27163e-12 0 0)
(5.8104e-12 0 0)
(-2.56319e-12 0 0)
(5.16543e-12 0 0)
(-1.99837e-12 0 0)
(4.11327e-12 0 0)
(1.77786e-12 0 0)
(3.5372e-12 0 0)
(3.00915e-12 0 0)
(4.85136e-12 0 0)
(2.98988e-12 0 0)
(2.24751e-12 0 0)
(4.41125e-12 0 0)
(3.57688e-12 0 0)
(7.15738e-12 0 0)
(4.42591e-12 0 0)
(6.58594e-12 0 0)
(1.12388e-12 0 0)
(5.05933e-12 0 0)
(-2.65472e-12 0 0)
(2.38884e-12 0 0)
(-3.48588e-12 0 0)
(-1.1026e-12 0 0)
(-2.84598e-12 0 0)
(1.7078e-12 0 0)
(1.05716e-12 0 0)
(6.0003e-12 0 0)
(5.19063e-12 0 0)
(3.70043e-12 0 0)
(8.29324e-12 0 0)
(4.92906e-12 0 0)
(3.50124e-12 0 0)
(1.03919e-12 0 0)
(4.51017e-13 0 0)
(1.97276e-12 0 0)
(1.71794e-12 0 0)
(1.05494e-12 0 0)
(-2.78587e-12 0 0)
(3.05013e-12 0 0)
(-2.47058e-12 0 0)
(-9.70017e-13 0 0)
(-5.9826e-14 0 0)
(4.68639e-13 0 0)
(-1.56287e-13 0 0)
(-4.48852e-13 0 0)
(1.02188e-14 0 0)
(2.32813e-12 0 0)
(1.80302e-13 0 0)
(-8.90802e-13 0 0)
(9.50243e-13 0 0)
(3.10072e-12 0 0)
(1.28126e-12 0 0)
(2.13986e-12 0 0)
(3.41506e-12 0 0)
(1.0991e-12 0 0)
(1.10119e-12 0 0)
(2.31567e-13 0 0)
(-4.66686e-13 0 0)
(-2.56743e-12 0 0)
(1.24035e-12 0 0)
(-3.77024e-12 0 0)
(7.75759e-13 0 0)
(-1.01826e-12 0 0)
(1.57376e-13 0 0)
(-1.19293e-12 0 0)
(3.66572e-12 0 0)
(2.43037e-12 0 0)
(6.79734e-12 0 0)
(3.08465e-12 0 0)
(4.0509e-12 0 0)
(4.47793e-12 0 0)
(3.02448e-12 0 0)
(3.29894e-12 0 0)
(2.56897e-12 0 0)
(5.24704e-12 0 0)
(5.40085e-12 0 0)
(4.07306e-12 0 0)
(7.19626e-12 0 0)
(8.07503e-12 0 0)
(7.37384e-12 0 0)
(9.29954e-12 0 0)
(7.43698e-12 0 0)
(9.53739e-12 0 0)
(6.63572e-12 0 0)
(7.89499e-12 0 0)
(7.59359e-12 0 0)
(6.62086e-12 0 0)
(5.44273e-12 0 0)
(6.01481e-12 0 0)
(2.72712e-12 0 0)
(5.61285e-12 0 0)
(6.00246e-12 0 0)
(6.24567e-12 0 0)
(8.63873e-12 0 0)
(4.07281e-12 0 0)
(7.3654e-12 0 0)
(3.10701e-12 0 0)
(5.67326e-12 0 0)
(5.02566e-12 0 0)
(1.88102e-12 0 0)
(3.54762e-12 0 0)
(2.44001e-12 0 0)
(2.13748e-12 0 0)
(4.82714e-14 0 0)
(1.22935e-12 0 0)
(4.46927e-13 0 0)
(6.39663e-13 0 0)
(1.28792e-12 0 0)
(-5.00781e-13 0 0)
(-1.49512e-13 0 0)
(-2.69899e-12 0 0)
(-2.27732e-12 0 0)
(-1.8878e-12 0 0)
(-2.66064e-12 0 0)
(-2.9926e-12 0 0)
(-3.92372e-12 0 0)
(9.70401e-13 0 0)
(-1.53171e-12 0 0)
(-2.82343e-12 0 0)
(-2.14741e-12 0 0)
(-8.48279e-13 0 0)
(-2.03437e-12 0 0)
(-4.84277e-12 0 0)
(-1.6401e-12 0 0)
(-8.61556e-13 0 0)
(3.31e-12 0 0)
(6.21619e-13 0 0)
(-1.20406e-12 0 0)
(-6.27462e-13 0 0)
(1.24762e-12 0 0)
(9.0054e-13 0 0)
(6.46509e-12 0 0)
(1.07204e-11 0 0)
(2.55282e-11 0 0)
(6.54038e-11 0 0)
(1.67432e-10 0 0)
(4.20823e-10 0 0)
(1.03631e-09 0 0)
(2.52388e-09 0 0)
(6.06759e-09 0 0)
(1.44105e-08 0 0)
(3.38199e-08 0 0)
(7.84501e-08 0 0)
(1.79842e-07 0 0)
(4.07362e-07 0 0)
(9.11551e-07 0 0)
(2.01461e-06 0 0)
(4.3965e-06 0 0)
(9.47137e-06 0 0)
(2.01367e-05 0 0)
(4.22383e-05 0 0)
(8.73835e-05 0 0)
(0.000178243 0 0)
(0.000358341 0 0)
(0.000709771 0 0)
(0.00138451 0 0)
(0.00265852 0 0)
(0.00502268 0 0)
(0.00933159 0 0)
(0.0170393 0 0)
(0.0305598 0 0)
(0.0537962 0 0)
(0.0928806 0 0)
(0.157147 0 0)
(0.260312 0 0)
(0.421742 0 0)
(0.667541 0 0)
(1.03098 0 0)
(1.55151 0 0)
(2.27118 0 0)
(3.22603 0 0)
(4.42995 0 0)
(5.86771 0 0)
(7.51341 0 0)
(9.34617 0 0)
(11.3471 0 0)
(13.496 0 0)
(15.7722 0 0)
(18.1562 0 0)
(20.6304 0 0)
(23.1797 0 0)
(25.7916 0 0)
(28.4557 0 0)
(31.1635 0 0)
(33.9083 0 0)
(36.6845 0 0)
(39.4875 0 0)
(42.3136 0 0)
(45.1597 0 0)
(48.0231 0 0)
(50.9017 0 0)
(53.7935 0 0)
(56.6968 0 0)
(59.6101 0 0)
(62.5323 0 0)
(65.462 0 0)
(68.3982 0 0)
(71.34 0 0)
(74.2864 0 0)
(77.2366 0 0)
(80.1897 0 0)
(83.145 0 0)
(86.1018 0 0)
(89.0592 0 0)
(92.0166 0 0)
(94.9732 0 0)
(97.9283 0 0)
(100.881 0 0)
(103.831 0 0)
(106.777 0 0)
(109.718 0 0)
(112.654 0 0)
(115.583 0 0)
(118.505 0 0)
(121.418 0 0)
(124.322 0 0)
(127.215 0 0)
(130.096 0 0)
(132.964 0 0)
(135.817 0 0)
(138.653 0 0)
(141.471 0 0)
(144.269 0 0)
(147.044 0 0)
(149.795 0 0)
(152.519 0 0)
(155.213 0 0)
(157.873 0 0)
(160.498 0 0)
(163.082 0 0)
(165.623 0 0)
(168.115 0 0)
(170.554 0 0)
(172.933 0 0)
(175.251 0 0)
(177.495 0 0)
(179.663 0 0)
(181.747 0 0)
(183.738 0 0)
(185.633 0 0)
(187.416 0 0)
(189.086 0 0)
(190.632 0 0)
(192.046 0 0)
(193.325 0 0)
(194.462 0 0)
(195.453 0 0)
(196.301 0 0)
(197.004 0 0)
(197.572 0 0)
(198.014 0 0)
(198.342 0 0)
(198.572 0 0)
(198.716 0 0)
(198.798 0 0)
(198.837 0 0)
(198.847 0 0)
(198.847 0 0)
(198.845 0 0)
(198.838 0 0)
(198.824 0 0)
(198.794 0 0)
(198.748 0 0)
(198.703 0 0)
(198.669 0 0)
(198.641 0 0)
(198.619 0 0)
(198.604 0 0)
(198.596 0 0)
(198.59 0 0)
(198.587 0 0)
(198.585 0 0)
(198.583 0 0)
(198.582 0 0)
(198.581 0 0)
(198.58 0 0)
(198.579 0 0)
(198.577 0 0)
(198.576 0 0)
(198.575 0 0)
(198.574 0 0)
(198.573 0 0)
(198.572 0 0)
(198.571 0 0)
(198.571 0 0)
(198.57 0 0)
(198.569 0 0)
(198.569 0 0)
(198.568 0 0)
(198.567 0 0)
(198.567 0 0)
(198.566 0 0)
(198.565 0 0)
(198.563 0 0)
(198.562 0 0)
(198.561 0 0)
(198.56 0 0)
(198.559 0 0)
(198.557 0 0)
(198.556 0 0)
(198.555 0 0)
(198.554 0 0)
(198.553 0 0)
(198.552 0 0)
(198.551 0 0)
(198.55 0 0)
(198.549 0 0)
(198.549 0 0)
(198.549 0 0)
(198.548 0 0)
(198.547 0 0)
(198.546 0 0)
(198.545 0 0)
(198.544 0 0)
(198.543 0 0)
(198.543 0 0)
(198.543 0 0)
(198.543 0 0)
(198.542 0 0)
(198.54 0 0)
(198.54 0 0)
(198.54 0 0)
(198.539 0 0)
(198.541 0 0)
(198.554 0 0)
(198.575 0 0)
(198.623 0 0)
(198.741 0 0)
(198.939 0 0)
(198.939 0 0)
(198.7 0 0)
(198.532 0 0)
(198.479 0 0)
(198.483 0 0)
(198.479 0 0)
(198.47 0 0)
(198.491 0 0)
(198.529 0 0)
(198.535 0 0)
(198.507 0 0)
(198.496 0 0)
(198.525 0 0)
(198.547 0 0)
(198.522 0 0)
(198.487 0 0)
(198.497 0 0)
(198.529 0 0)
(198.525 0 0)
(198.487 0 0)
(198.474 0 0)
(198.505 0 0)
(198.528 0 0)
(198.502 0 0)
(198.469 0 0)
(198.485 0 0)
(198.52 0 0)
(198.511 0 0)
(198.47 0 0)
(198.462 0 0)
(198.497 0 0)
(198.513 0 0)
(198.477 0 0)
(198.441 0 0)
(198.459 0 0)
(198.495 0 0)
(198.481 0 0)
(198.433 0 0)
(198.418 0 0)
(198.448 0 0)
(198.464 0 0)
(198.426 0 0)
(198.383 0 0)
(198.392 0 0)
(198.42 0 0)
(198.399 0 0)
(198.344 0 0)
(198.323 0 0)
(198.348 0 0)
(198.351 0 0)
(198.296 0 0)
(198.245 0 0)
(198.248 0 0)
(198.263 0 0)
(198.22 0 0)
(198.147 0 0)
(198.115 0 0)
(198.123 0 0)
(198.101 0 0)
(198.02 0 0)
(197.946 0 0)
(197.922 0 0)
(197.91 0 0)
(197.839 0 0)
(197.734 0 0)
(197.665 0 0)
(197.63 0 0)
(197.566 0 0)
(197.436 0 0)
(197.309 0 0)
(197.225 0 0)
(197.148 0 0)
(196.996 0 0)
(196.789 0 0)
(196.623 0 0)
(196.504 0 0)
(196.351 0 0)
(196.069 0 0)
(195.763 0 0)
(195.534 0 0)
(195.343 0 0)
(194.991 0 0)
(194.455 0 0)
(193.982 0 0)
(193.653 0 0)
(193.219 0 0)
(192.166 0 0)
(190.57 0 0)
(188.085 0 0)
(182.734 0 0)
(166.424 0 0)
(114.514 0 0)
(43.9968 0 0)
(11.6978 0 0)
(2.89088 0 0)
(0.690517 0 0)
(0.163283 0 0)
(0.0385055 0 0)
(0.00907511 0 0)
(0.00213865 0 0)
(0.000503967 0 0)
(0.00011875 0 0)
(2.79783e-05 0 0)
(6.5913e-06 0 0)
(1.55269e-06 0 0)
(3.65734e-07 0 0)
(8.61424e-08 0 0)
(2.02875e-08 0 0)
(4.77787e-09 0 0)
(1.12745e-09 0 0)
(2.66491e-10 0 0)
(6.3583e-11 0 0)
(1.48321e-11 0 0)
(3.23726e-12 0 0)
(3.01279e-12 0 0)
(7.39272e-13 0 0)
(3.3878e-12 0 0)
(7.05944e-13 0 0)
(1.64541e-12 0 0)
(4.41983e-12 0 0)
(3.23326e-12 0 0)
(3.68752e-12 0 0)
(4.56993e-12 0 0)
(2.68916e-12 0 0)
(1.10786e-12 0 0)
(2.97441e-12 0 0)
(2.62155e-12 0 0)
(4.6573e-13 0 0)
(-5.80686e-13 0 0)
(-1.26315e-12 0 0)
(-5.60937e-13 0 0)
(-3.46536e-12 0 0)
(-1.16592e-12 0 0)
(-5.72197e-13 0 0)
(2.65692e-12 0 0)
(-6.88567e-13 0 0)
(-1.27895e-13 0 0)
(2.63448e-12 0 0)
(-9.91346e-13 0 0)
(2.22643e-12 0 0)
(-4.18512e-13 0 0)
(4.87232e-12 0 0)
(1.72455e-12 0 0)
(4.21609e-12 0 0)
(8.70266e-13 0 0)
(1.90952e-12 0 0)
(-3.14689e-12 0 0)
(-1.27114e-12 0 0)
(-7.62425e-13 0 0)
(-3.23523e-12 0 0)
(-5.37244e-12 0 0)
(-6.12911e-12 0 0)
(-2.76661e-12 0 0)
(-1.41944e-12 0 0)
(-2.78713e-12 0 0)
(-3.1043e-12 0 0)
(-4.66822e-12 0 0)
(-7.02282e-12 0 0)
(-6.85893e-12 0 0)
(-3.54397e-12 0 0)
(-6.05813e-12 0 0)
(-2.7382e-12 0 0)
(-1.9996e-12 0 0)
(-1.02459e-12 0 0)
(-3.03409e-12 0 0)
(-7.8592e-13 0 0)
(-5.03896e-12 0 0)
(-1.34427e-12 0 0)
(-1.34915e-12 0 0)
(-1.82084e-12 0 0)
(2.62741e-12 0 0)
(3.36942e-12 0 0)
(4.604e-12 0 0)
(4.91751e-12 0 0)
(6.28175e-12 0 0)
(3.28816e-12 0 0)
(5.74534e-12 0 0)
(1.42778e-12 0 0)
(7.42623e-13 0 0)
(-3.03043e-12 0 0)
(-4.90307e-13 0 0)
(-6.56441e-12 0 0)
(4.48947e-14 0 0)
(-3.4566e-12 0 0)
(1.22589e-12 0 0)
(9.67683e-14 0 0)
(5.77694e-13 0 0)
(3.36442e-13 0 0)
(1.139e-12 0 0)
(-2.25769e-12 0 0)
(-2.14421e-12 0 0)
(-4.74331e-12 0 0)
(2.13704e-13 0 0)
(-5.026e-13 0 0)
(8.80701e-13 0 0)
(-8.51971e-13 0 0)
(-1.53271e-13 0 0)
(-3.39481e-12 0 0)
(-3.56378e-12 0 0)
(-3.34877e-12 0 0)
(-2.76486e-12 0 0)
(-6.44855e-13 0 0)
(-2.33392e-12 0 0)
(-2.14393e-12 0 0)
(-5.71843e-12 0 0)
(-3.94648e-12 0 0)
(-8.29326e-12 0 0)
(-2.31939e-12 0 0)
(-5.21685e-12 0 0)
(1.43854e-12 0 0)
(-2.62658e-12 0 0)
(-5.29176e-13 0 0)
(-2.75195e-12 0 0)
(1.79384e-13 0 0)
(1.21864e-12 0 0)
(2.64353e-12 0 0)
(-3.66763e-12 0 0)
(-3.0497e-12 0 0)
(-3.6122e-12 0 0)
(-3.5256e-12 0 0)
(-2.94322e-12 0 0)
(-3.14747e-12 0 0)
(-9.41452e-13 0 0)
(-6.30425e-12 0 0)
(-5.57895e-12 0 0)
(-4.51741e-12 0 0)
(-1.48903e-12 0 0)
(4.43884e-13 0 0)
(2.87342e-12 0 0)
(1.49253e-12 0 0)
(5.03904e-12 0 0)
(1.35167e-12 0 0)
(4.38714e-12 0 0)
(2.64762e-12 0 0)
(9.68433e-13 0 0)
(1.76595e-13 0 0)
(-1.22699e-12 0 0)
(-2.17383e-12 0 0)
(2.14798e-12 0 0)
(-2.99602e-12 0 0)
(-3.02181e-13 0 0)
(-2.69089e-12 0 0)
(-2.12419e-12 0 0)
(-1.38291e-13 0 0)
(-5.40728e-12 0 0)
(-2.16057e-12 0 0)
(-3.92888e-13 0 0)
(-9.68111e-13 0 0)
(-1.62458e-12 0 0)
(-2.84488e-12 0 0)
(-6.21052e-12 0 0)
(-6.95213e-13 0 0)
(-2.69775e-12 0 0)
(1.84069e-12 0 0)
(1.27899e-12 0 0)
(-1.39977e-12 0 0)
(-2.7631e-13 0 0)
(-1.33787e-12 0 0)
(-2.34134e-12 0 0)
(1.78464e-12 0 0)
(-5.48205e-13 0 0)
(-1.30636e-12 0 0)
(-8.6854e-13 0 0)
(2.34164e-12 0 0)
(1.40751e-12 0 0)
(4.91021e-12 0 0)
(3.42452e-12 0 0)
(1.81852e-12 0 0)
(-2.18026e-13 0 0)
(1.66873e-12 0 0)
(1.22367e-12 0 0)
(6.60896e-13 0 0)
(9.39667e-13 0 0)
(2.93606e-12 0 0)
(1.29946e-12 0 0)
(4.34391e-12 0 0)
(4.98323e-12 0 0)
(2.42824e-12 0 0)
(2.56584e-12 0 0)
(3.47381e-12 0 0)
(4.1336e-12 0 0)
(3.35926e-12 0 0)
(2.0506e-12 0 0)
(3.46285e-12 0 0)
(1.29332e-12 0 0)
(1.62654e-12 0 0)
(1.69192e-12 0 0)
(-2.20681e-12 0 0)
(-1.38472e-12 0 0)
(-3.08758e-12 0 0)
(-4.20928e-12 0 0)
(-6.51746e-12 0 0)
(-6.27243e-12 0 0)
(-5.38784e-12 0 0)
(-4.17722e-12 0 0)
(-3.57058e-12 0 0)
(-4.02334e-12 0 0)
(-6.75896e-12 0 0)
(-4.64511e-12 0 0)
(-8.65181e-12 0 0)
(-8.25053e-12 0 0)
(-1.09319e-11 0 0)
(-7.37632e-12 0 0)
(-8.18495e-12 0 0)
(-7.71707e-12 0 0)
(-4.35188e-12 0 0)
(-2.70378e-12 0 0)
(-4.12885e-12 0 0)
(-4.91894e-12 0 0)
(-2.90992e-12 0 0)
(-4.25655e-13 0 0)
(7.7152e-15 0 0)
(-6.43911e-13 0 0)
(1.52376e-12 0 0)
(2.61634e-13 0 0)
(1.60815e-12 0 0)
(5.34917e-12 0 0)
(5.35541e-12 0 0)
(6.475e-12 0 0)
(4.86051e-12 0 0)
(6.66398e-12 0 0)
(7.49736e-12 0 0)
(9.56196e-12 0 0)
(8.44549e-12 0 0)
(6.80524e-12 0 0)
(7.04972e-12 0 0)
(3.9287e-12 0 0)
(4.36728e-12 0 0)
(5.1975e-12 0 0)
(2.81418e-12 0 0)
(4.1568e-12 0 0)
(1.14333e-12 0 0)
(-9.69598e-13 0 0)
(7.1912e-13 0 0)
(-2.93981e-12 0 0)
(-1.8356e-12 0 0)
(-3.28564e-13 0 0)
(1.65848e-12 0 0)
(4.48346e-13 0 0)
(1.99414e-12 0 0)
(4.65269e-12 0 0)
(5.02076e-12 0 0)
(3.67607e-12 0 0)
(2.5206e-12 0 0)
(4.39011e-13 0 0)
(4.50447e-12 0 0)
(1.93217e-12 0 0)
(1.86311e-12 0 0)
(2.39313e-12 0 0)
(3.97829e-12 0 0)
(8.3934e-13 0 0)
(2.82737e-13 0 0)
(1.40716e-13 0 0)
(-1.54171e-12 0 0)
(5.94493e-13 0 0)
(-1.99009e-12 0 0)
(2.96969e-12 0 0)
(1.60135e-12 0 0)
(5.98438e-12 0 0)
(4.60894e-12 0 0)
(3.40702e-12 0 0)
(2.48815e-12 0 0)
(1.97311e-12 0 0)
(-2.69615e-13 0 0)
(6.13415e-13 0 0)
(2.59192e-12 0 0)
(2.12116e-12 0 0)
(4.38443e-12 0 0)
(4.87903e-12 0 0)
(6.36059e-12 0 0)
(7.81237e-12 0 0)
(9.78745e-12 0 0)
(1.1053e-11 0 0)
(1.04183e-11 0 0)
(8.66395e-12 0 0)
(6.81033e-12 0 0)
(6.85573e-12 0 0)
(4.17754e-12 0 0)
(6.16512e-12 0 0)
(4.61644e-12 0 0)
(3.52734e-12 0 0)
(4.26111e-12 0 0)
(2.58786e-12 0 0)
(4.60635e-12 0 0)
(1.86918e-12 0 0)
(3.01055e-12 0 0)
(3.64824e-12 0 0)
(2.33319e-12 0 0)
(3.87165e-12 0 0)
(2.04373e-12 0 0)
(3.17863e-12 0 0)
(6.27748e-13 0 0)
(1.98188e-12 0 0)
(1.80522e-12 0 0)
(1.05495e-12 0 0)
(-3.94261e-13 0 0)
(-1.47685e-12 0 0)
(-3.19119e-14 0 0)
(-1.10636e-12 0 0)
(2.25852e-12 0 0)
(-1.15824e-12 0 0)
(5.2365e-12 0 0)
(3.29208e-12 0 0)
(5.76604e-12 0 0)
(2.06687e-12 0 0)
(4.89591e-12 0 0)
(3.51976e-12 0 0)
(3.43909e-12 0 0)
(2.50386e-12 0 0)
(2.94072e-12 0 0)
(3.26737e-12 0 0)
(4.92351e-12 0 0)
(2.82073e-12 0 0)
(2.2219e-12 0 0)
(5.37886e-12 0 0)
(5.05836e-12 0 0)
(5.95118e-12 0 0)
(3.8926e-12 0 0)
(7.69555e-12 0 0)
(8.3336e-12 0 0)
(7.70101e-12 0 0)
(5.07786e-12 0 0)
(8.28865e-12 0 0)
(7.43364e-12 0 0)
(8.217e-12 0 0)
(6.46614e-12 0 0)
(1.02149e-11 0 0)
(1.08394e-11 0 0)
(1.37916e-11 0 0)
(1.31166e-11 0 0)
(1.3925e-11 0 0)
(1.39225e-11 0 0)
(1.41075e-11 0 0)
(1.40349e-11 0 0)
(1.3684e-11 0 0)
(1.45922e-11 0 0)
(1.51437e-11 0 0)
(1.52322e-11 0 0)
(1.63396e-11 0 0)
(1.84882e-11 0 0)
(1.56488e-11 0 0)
(1.5104e-11 0 0)
(1.61249e-11 0 0)
(1.86495e-11 0 0)
(1.39816e-11 0 0)
(1.60487e-11 0 0)
(1.50499e-11 0 0)
(1.96724e-11 0 0)
(1.59918e-11 0 0)
(2.08269e-11 0 0)
(2.03448e-11 0 0)
)
;

boundaryField
{
    sides
    {
        type            zeroGradient;
    }
    empty
    {
        type            empty;
    }
}


// ************************************************************************* //
