/*--------------------------------*- C++ -*----------------------------------*\
| =========                 |                                                 |
| \\      /  F ield         | OpenFOAM: The Open Source CFD Toolbox           |
|  \\    /   O peration     | Version:  4.1                                   |
|   \\  /    A nd           | Web:      www.OpenFOAM.org                      |
|    \\/     M anipulation  |                                                 |
\*---------------------------------------------------------------------------*/
FoamFile
{
    version     2.0;
    format      ascii;
    class       volScalarField;
    location    "0.0048";
    object      mag(U);
}
// * * * * * * * * * * * * * * * * * * * * * * * * * * * * * * * * * * * * * //

dimensions      [0 1 -1 0 0 0 0];

internalField   nonuniform List<scalar> 
1000
(
6.36563e-12
2.53532e-12
5.2447e-12
3.78423e-12
4.91806e-12
2.39084e-12
1.82558e-12
2.00428e-12
8.25243e-13
1.77869e-12
1.4051e-12
1.03339e-12
2.20734e-12
6.37161e-12
2.05771e-12
4.00529e-12
3.16447e-12
7.6387e-12
2.80134e-12
3.93056e-12
2.73071e-12
3.64679e-12
5.82062e-12
8.03479e-12
4.68954e-12
8.38801e-12
5.84512e-12
7.85272e-12
8.19494e-12
7.92277e-12
1.13092e-11
1.03211e-11
1.28721e-11
1.31244e-11
1.35511e-11
9.91047e-12
1.51982e-11
1.06154e-11
1.52492e-11
1.18043e-11
1.28598e-11
8.62254e-12
1.39845e-11
1.14282e-11
1.46512e-11
1.20294e-11
1.30899e-11
1.4414e-11
1.56085e-11
1.2702e-11
1.68845e-11
1.54734e-11
1.77671e-11
1.65278e-11
1.36716e-11
1.67934e-11
1.65797e-11
1.81839e-11
1.72649e-11
2.04316e-11
1.80748e-11
1.97115e-11
1.64554e-11
1.9862e-11
1.86352e-11
2.01838e-11
1.74903e-11
1.87099e-11
1.33886e-11
1.65159e-11
1.09129e-11
1.2569e-11
8.44333e-12
1.26459e-11
1.02214e-11
1.26552e-11
7.8634e-12
9.00779e-12
9.63068e-12
8.46829e-12
6.91318e-12
8.69647e-12
6.5107e-12
6.75483e-12
6.64362e-12
2.39515e-12
5.64905e-12
3.16931e-12
4.8324e-12
2.6087e-13
1.68266e-12
9.80183e-14
3.27732e-12
3.29516e-12
2.32244e-12
2.96547e-12
2.99979e-12
7.12703e-12
8.95496e-12
9.6579e-12
1.03717e-11
1.1079e-11
1.21295e-11
7.44212e-12
1.00016e-11
8.86567e-12
6.5715e-12
9.46253e-12
7.15027e-12
9.05014e-12
1.03051e-11
8.55689e-12
8.61348e-12
8.16989e-12
8.92554e-12
1.01718e-11
9.52118e-12
8.52563e-12
1.18837e-11
1.13547e-11
1.29352e-11
1.57454e-11
1.62674e-11
1.84839e-11
1.63636e-11
1.42389e-11
1.35427e-11
1.70995e-11
1.49978e-11
1.81521e-11
1.63318e-11
1.59084e-11
1.5242e-11
1.31753e-11
1.47993e-11
1.35969e-11
1.41559e-11
1.59396e-11
1.44196e-11
1.52437e-11
1.67554e-11
1.74918e-11
1.67454e-11
1.73959e-11
1.62939e-11
1.53322e-11
1.77118e-11
1.77967e-11
2.09484e-11
1.99654e-11
2.06239e-11
1.83221e-11
2.00717e-11
1.59591e-11
1.75098e-11
1.42207e-11
1.44309e-11
1.7361e-11
1.57381e-11
1.40314e-11
1.33168e-11
1.14517e-11
9.56579e-12
8.4294e-12
6.94137e-12
7.77043e-12
5.92718e-12
3.1359e-12
3.36553e-12
6.5194e-12
7.85161e-12
9.17819e-12
1.03825e-11
1.10447e-11
1.15887e-11
1.36119e-11
8.1599e-12
9.86408e-12
7.62031e-12
1.03065e-11
8.46439e-12
7.4926e-12
8.5077e-12
1.09614e-11
1.20433e-11
1.36597e-11
7.91764e-12
9.48229e-12
1.07753e-11
1.17306e-11
1.37462e-11
1.15347e-11
1.44477e-11
1.06371e-11
1.30809e-11
1.06785e-11
1.33826e-11
9.88787e-12
1.37152e-11
9.05429e-12
1.38155e-11
1.15713e-11
1.51182e-11
1.22194e-11
1.17031e-11
8.42673e-12
1.04849e-11
9.39355e-12
1.14021e-11
1.3045e-11
1.24953e-11
1.16543e-11
1.04785e-11
1.20762e-11
9.30631e-12
1.34149e-11
9.0283e-12
1.1889e-11
5.23178e-12
9.71517e-12
7.92278e-12
1.05689e-11
5.41555e-12
7.00443e-12
1.61876e-12
7.36039e-12
3.74361e-12
8.8512e-12
7.18413e-12
7.8154e-12
5.41746e-12
8.07914e-12
9.37312e-12
1.01571e-11
1.25784e-11
9.37557e-12
1.04978e-11
4.86214e-12
8.70296e-12
6.63814e-12
1.19994e-11
1.05793e-11
1.41045e-11
8.28036e-12
1.10198e-11
9.8975e-12
1.34137e-11
1.01507e-11
1.17919e-11
9.41044e-12
1.30144e-11
1.06401e-11
1.13077e-11
1.10748e-11
1.61125e-11
2.51615e-11
4.76292e-11
9.34278e-11
1.94866e-10
4.02559e-10
8.43198e-10
1.75063e-09
3.60934e-09
7.37529e-09
1.49448e-08
3.00394e-08
5.98865e-08
1.18424e-07
2.3225e-07
4.51696e-07
8.71077e-07
1.66546e-06
3.15657e-06
5.92983e-06
1.10394e-05
2.03636e-05
3.72134e-05
6.73597e-05
0.000120747
0.000214308
0.000376529
0.000654722
0.00112645
0.00191714
0.00322672
0.00536922
0.00883011
0.0143477
0.0230249
0.0364793
0.0570353
0.0879613
0.133745
0.200388
0.295685
0.429431
0.613463
0.861439
1.18821
1.60859
2.13535
2.77565
3.52727
4.37997
5.32214
6.34445
7.43907
8.59858
9.81573
11.0836
12.3958
13.7465
15.1307
16.5438
17.9821
19.4423
20.9217
22.4179
23.929
25.4532
26.9891
28.5354
30.0912
31.6555
33.2275
34.8065
36.3919
37.9831
39.5797
41.1813
42.7874
44.3977
46.0119
47.6298
49.251
50.8753
52.5026
54.1325
55.765
57.3998
59.0369
60.6759
62.3169
63.9596
65.6039
67.2498
68.897
70.5456
72.1953
73.8461
75.4978
77.1505
78.8039
80.458
82.1127
83.768
85.4236
87.0796
88.7358
90.3922
92.0487
93.7051
95.3615
97.0177
98.6736
100.329
101.984
103.639
105.293
106.946
108.598
110.249
111.9
113.549
115.197
116.843
118.488
120.132
121.773
123.413
125.051
126.686
128.319
129.95
131.577
133.202
134.824
136.443
138.058
139.669
141.276
142.879
144.477
146.071
147.659
149.241
150.818
152.388
153.952
155.508
157.056
158.596
160.128
161.649
163.16
164.661
166.149
167.625
169.087
170.535
171.967
173.381
174.778
176.155
177.511
178.843
180.151
181.432
182.685
183.907
185.096
186.25
187.365
188.44
189.471
190.456
191.392
192.275
193.105
193.878
194.591
195.244
195.835
196.364
196.83
197.236
197.582
197.872
198.11
198.299
198.444
198.553
198.63
198.679
198.709
198.724
198.728
198.728
198.728
198.726
198.722
198.711
198.694
198.674
198.656
198.639
198.625
198.614
198.606
198.6
198.596
198.593
198.592
198.591
198.59
198.589
198.588
198.587
198.586
198.585
198.585
198.584
198.583
198.583
198.582
198.581
198.581
198.58
198.579
198.579
198.578
198.577
198.577
198.576
198.576
198.575
198.574
198.574
198.573
198.573
198.572
198.572
198.571
198.571
198.57
198.569
198.569
198.568
198.568
198.567
198.567
198.566
198.566
198.565
198.564
198.564
198.563
198.563
198.562
198.562
198.561
198.561
198.56
198.56
198.559
198.559
198.558
198.558
198.557
198.557
198.556
198.555
198.555
198.554
198.554
198.553
198.553
198.553
198.552
198.552
198.552
198.551
198.551
198.551
198.55
198.55
198.55
198.549
198.549
198.548
198.548
198.547
198.547
198.547
198.546
198.546
198.546
198.545
198.545
198.545
198.544
198.544
198.544
198.544
198.544
198.543
198.543
198.543
198.543
198.543
198.542
198.542
198.542
198.542
198.541
198.541
198.541
198.541
198.542
198.541
198.541
198.543
198.544
198.546
198.547
198.545
198.542
198.54
198.54
198.539
198.539
198.539
198.538
198.537
198.536
198.534
198.537
198.547
198.567
198.609
198.706
198.856
198.846
198.663
198.546
198.506
198.489
198.473
198.478
198.511
198.535
198.524
198.506
198.522
198.551
198.546
198.516
198.512
198.543
198.559
198.533
198.507
198.526
198.556
198.544
198.508
198.506
198.538
198.548
198.517
198.497
198.524
198.553
198.534
198.499
198.506
198.542
198.548
198.515
198.496
198.523
198.549
198.528
198.496
198.507
198.542
198.541
198.505
198.493
198.525
198.547
198.521
198.49
198.506
198.541
198.535
198.499
198.492
198.524
198.542
198.513
198.486
198.507
198.54
198.527
198.489
198.491
198.529
198.538
198.5
198.479
198.511
198.541
198.517
198.478
198.489
198.529
198.531
198.49
198.473
198.507
198.534
198.506
198.469
198.484
198.523
198.517
198.474
198.464
198.502
198.522
198.485
198.45
198.473
198.511
198.496
198.45
198.444
198.484
198.497
198.455
198.422
198.447
198.481
198.457
198.407
198.405
198.444
198.45
198.4
198.365
198.39
198.418
198.387
198.333
198.328
198.361
198.354
198.296
198.26
198.281
198.298
198.249
198.186
198.178
198.2
198.177
198.107
198.06
198.063
198.06
197.999
197.926
197.896
197.89
197.843
197.755
197.69
197.662
197.621
197.522
197.418
197.354
197.306
197.205
197.058
196.94
196.863
196.763
196.574
196.373
196.234
196.113
195.888
195.577
195.328
195.153
194.898
194.446
194.005
193.683
193.311
192.683
191.883
190.831
188.989
185.471
176.436
143.448
74.6777
22.1174
5.69195
1.37553
0.326722
0.0773084
0.0182776
0.00432075
0.0010213
0.000241387
5.70492e-05
1.34825e-05
3.18621e-06
7.52946e-07
1.77923e-07
4.20363e-08
9.92603e-09
2.33765e-09
5.44262e-10
1.21289e-10
2.3509e-11
2.6945e-12
6.04955e-12
7.62412e-12
5.29326e-12
1.0388e-11
8.10537e-12
1.06206e-11
6.51422e-12
4.831e-12
2.75309e-12
2.60976e-12
8.09164e-13
1.45642e-12
2.57032e-12
2.49157e-12
1.15101e-12
1.16393e-12
5.42482e-12
1.85418e-12
3.84083e-12
3.40931e-13
4.20887e-13
2.12725e-12
1.127e-12
5.98475e-12
5.82246e-12
9.11941e-12
6.99247e-12
1.08118e-11
8.91464e-12
9.77838e-12
1.00378e-11
1.30427e-11
1.08366e-11
1.07214e-11
9.92625e-12
1.19977e-11
1.05558e-11
9.83956e-12
1.038e-11
8.45972e-12
8.165e-12
9.65386e-12
7.6996e-12
5.15083e-12
4.66986e-12
4.38125e-12
6.67381e-12
5.57011e-12
6.69771e-12
7.31179e-12
5.94852e-12
5.57488e-12
8.32555e-12
8.0691e-12
7.47989e-12
6.16658e-12
5.41922e-12
3.89231e-12
6.62065e-12
5.31444e-12
5.79433e-12
6.49763e-12
7.05549e-12
6.46115e-12
8.55697e-12
6.49768e-12
9.26623e-12
5.0909e-12
4.63628e-12
2.03482e-12
2.55372e-13
2.58993e-12
1.3115e-12
1.68888e-13
3.28521e-12
8.5677e-13
3.34192e-12
1.10876e-12
2.04748e-12
6.40303e-13
3.62738e-13
3.27038e-12
2.11109e-12
5.624e-13
3.35631e-12
2.04709e-12
2.05022e-14
3.15885e-12
5.51966e-12
4.51388e-12
2.4597e-12
5.14045e-12
1.62672e-12
4.1615e-12
5.12947e-12
7.63324e-12
8.51999e-12
6.93554e-12
1.06858e-11
8.33155e-12
6.2533e-12
6.01347e-12
7.2635e-12
7.58626e-12
8.93969e-12
1.07059e-11
9.48632e-12
8.87023e-12
6.08013e-12
4.81706e-12
5.04466e-12
3.33053e-12
6.72431e-12
7.58714e-12
9.27485e-12
8.95552e-12
1.26149e-11
1.18346e-11
1.08245e-11
9.02659e-12
8.86161e-12
6.31959e-12
5.47534e-12
1.9768e-12
2.58399e-12
3.45318e-12
2.90909e-12
6.56212e-12
9.31272e-12
9.80525e-12
1.32149e-11
1.01543e-11
1.34272e-11
1.53805e-11
1.57428e-11
1.77408e-11
1.82969e-11
2.04437e-11
2.11272e-11
2.36674e-11
2.45586e-11
2.55239e-11
2.42603e-11
2.65311e-11
2.50502e-11
2.50884e-11
2.23597e-11
2.27222e-11
1.93857e-11
2.04196e-11
1.83534e-11
1.85047e-11
1.77258e-11
1.99791e-11
1.9019e-11
1.79132e-11
1.96666e-11
2.13394e-11
2.28584e-11
2.24184e-11
2.15683e-11
2.00882e-11
1.81687e-11
1.84944e-11
1.70215e-11
2.10362e-11
2.13184e-11
2.35337e-11
2.26149e-11
2.55954e-11
2.36998e-11
2.47548e-11
2.50338e-11
2.56826e-11
2.81166e-11
3.11182e-11
2.96606e-11
2.91586e-11
2.85502e-11
2.56723e-11
2.44489e-11
2.42739e-11
2.72245e-11
2.66991e-11
2.66994e-11
2.78146e-11
3.03921e-11
2.99204e-11
3.25818e-11
3.20861e-11
3.36359e-11
3.25556e-11
3.44663e-11
3.32854e-11
3.55219e-11
3.45982e-11
3.77675e-11
3.78048e-11
3.72465e-11
3.74766e-11
3.71206e-11
3.61051e-11
3.69668e-11
3.9022e-11
3.7614e-11
3.58788e-11
3.35718e-11
3.35437e-11
3.17194e-11
3.01604e-11
2.94861e-11
3.16963e-11
2.66119e-11
2.87308e-11
2.64731e-11
2.99553e-11
2.51426e-11
2.76277e-11
2.46019e-11
)
;

boundaryField
{
    sides
    {
        type            calculated;
        value           nonuniform List<scalar> 2(2.46019e-11 6.36563e-12);
    }
    empty
    {
        type            empty;
    }
}


// ************************************************************************* //
