/*--------------------------------*- C++ -*----------------------------------*\
| =========                 |                                                 |
| \\      /  F ield         | OpenFOAM: The Open Source CFD Toolbox           |
|  \\    /   O peration     | Version:  4.1                                   |
|   \\  /    A nd           | Web:      www.OpenFOAM.org                      |
|    \\/     M anipulation  |                                                 |
\*---------------------------------------------------------------------------*/
FoamFile
{
    version     2.0;
    format      ascii;
    class       volScalarField;
    location    "0.0048";
    object      p;
}
// * * * * * * * * * * * * * * * * * * * * * * * * * * * * * * * * * * * * * //

dimensions      [1 -1 -2 0 0 0 0];

internalField   nonuniform List<scalar> 
1000
(
100000
100000
100000
100000
100000
100000
100000
100000
100000
100000
100000
100000
100000
100000
100000
100000
100000
100000
100000
100000
100000
100000
100000
100000
100000
100000
100000
100000
100000
100000
100000
100000
100000
100000
100000
100000
100000
100000
100000
100000
100000
100000
100000
100000
100000
100000
100000
100000
100000
100000
100000
100000
100000
100000
100000
100000
100000
100000
100000
100000
100000
100000
100000
100000
100000
100000
100000
100000
100000
100000
100000
100000
100000
100000
100000
100000
100000
100000
100000
100000
100000
100000
100000
100000
100000
100000
100000
100000
100000
100000
100000
100000
100000
100000
100000
100000
100000
100000
100000
100000
100000
100000
100000
100000
100000
100000
100000
100000
100000
100000
100000
100000
100000
100000
100000
100000
100000
100000
100000
100000
100000
100000
100000
100000
100000
100000
100000
100000
100000
100000
100000
100000
100000
100000
100000
100000
100000
100000
100000
100000
100000
100000
100000
100000
100000
100000
100000
100000
100000
100000
100000
100000
100000
100000
100000
100000
100000
100000
100000
100000
100000
100000
100000
100000
100000
100000
100000
100000
100000
100000
100000
100000
100000
100000
100000
100000
100000
100000
100000
100000
100000
100000
100000
100000
100000
100000
100000
100000
100000
100000
100000
100000
100000
100000
100000
100000
100000
100000
100000
100000
100000
100000
100000
100000
100000
100000
100000
100000
100000
100000
100000
100000
100000
100000
100000
100000
100000
100000
100000
100000
100000
100000
100000
100000
100000
100000
100000
100000
100000
100000
100000
100000
100000
100000
100000
100000
100000
100000
100000
100000
100000
100000
100000
100000
100000
100000
100000
100000
100000
100000
100000
100000
100000
100000
100000
100000
100000
100000
100000
100000
100000
100000
100000
100000
100000
100000
100000
100000
100000
100000
100000
100000
100000
100000
100000
100000
100000
100000
100000
99999.9
99999.9
99999.8
99999.6
99999.3
99998.9
99998.1
99997
99995.1
99992.1
99987.4
99980.3
99969.6
99953.7
99930.6
99897.6
99851.2
99787.3
99701.2
99587.6
99441.5
99258.4
99035.5
98773.9
98478.1
98152.4
97800.4
97424.9
97028.6
96614.2
96184.4
95741.3
95287.2
94823.8
94352.9
93875.7
93393.4
92907.1
92417.5
91925.4
91431.4
90935.9
90439.4
89942.3
89444.9
88947.5
88450.3
87953.5
87457.3
86961.9
86467.5
85974
85481.8
84990.8
84501.1
84012.9
83526.2
83041.1
82557.6
82075.8
81595.8
81117.5
80641.1
80166.5
79693.9
79223.2
78754.4
78287.6
77822.9
77360.2
76899.6
76441.1
75984.6
75530.3
75078.2
74628.2
74180.4
73734.8
73291.4
72850.2
72411.2
71974.5
71540.1
71108
70678.1
70250.5
69825.2
69402.3
68981.7
68563.4
68147.6
67734
67322.9
66914.1
66507.8
66103.9
65702.4
65303.4
64906.8
64512.8
64121.2
63732.2
63345.7
62961.7
62580.4
62201.6
61825.5
61452
61081.2
60713.2
60347.9
59985.3
59625.7
59268.8
58914.9
58563.9
58216
57871.1
57529.4
57190.8
56855.5
56523.5
56195
55870
55548.6
55230.9
54917.1
54607.3
54301.5
54000
53703
53410.5
53122.8
52840.2
52562.6
52290.8
52024.4
51764.4
51510.3
51263.4
51022.9
50790.2
50565.2
50348.2
50140.2
49940.8
49751.2
49571.5
49402.1
49243.7
49096.2
48960.3
48836
48723.9
48623.3
48534.7
48457.8
48391.8
48336.6
48291.5
48255.1
48227
48206.6
48191.4
48181.5
48175.7
48172.8
48172
48172
48172.1
48172.5
48173.4
48174.8
48177.4
48181.1
48184.8
48188
48190.5
48192.6
48194.1
48195
48195.7
48196.3
48196.6
48196.9
48197.1
48197.2
48197.3
48197.4
48197.5
48197.6
48197.8
48197.9
48198
48198.1
48198.3
48198.4
48198.4
48198.5
48198.6
48198.7
48198.8
48198.9
48199
48199.1
48199.2
48199.3
48199.3
48199.4
48199.5
48199.6
48199.7
48199.8
48199.9
48200
48200
48200.1
48200.2
48200.2
48200.3
48200.4
48200.5
48200.5
48200.6
48200.7
48200.7
48200.8
48200.9
48200.9
48201
48201.1
48201.2
48201.2
48201.3
48201.4
48201.4
48201.5
48201.6
48201.7
48201.7
48201.8
48201.9
48202
48202
48202.1
48202.1
48202.2
48202.3
48202.4
48202.4
48202.5
48202.5
48202.6
48202.6
48202.7
48202.7
48202.7
48202.7
48202.7
48202.7
48202.7
48202.7
48202.7
48202.7
48202.7
48202.7
48202.7
48202.6
48202.6
48202.6
48202.6
48202.5
48202.5
48202.5
48202.4
48202.4
48202.4
48202.4
48202.4
48202.4
48202.4
48202.4
48202.4
48202.5
48202.5
48202.5
48202.5
48202.4
48202.6
48202.6
48202.1
48202.2
48203.6
48204.3
48204.9
48205.7
48204.9
48202.7
48202.4
48202.4
48203
48203.1
48203
48202.9
48203
48203.1
48203.3
48204
48203.4
48203.1
48205.1
48210.4
48218.8
48194.7
48190.4
48195.5
48207.5
48208.2
48198
48196.8
48208.2
48212
48200.9
48193.8
48202.2
48212.6
48208.3
48194.4
48194.8
48210.7
48214.4
48199.7
48191.9
48203
48214.6
48208.1
48193.1
48195.2
48211.8
48213.5
48196.6
48191.2
48206.6
48215.9
48205
48191.1
48196.5
48213.6
48213.6
48195.7
48191.5
48206.9
48215.1
48203.3
48191
48198.4
48214.3
48211.7
48193.2
48191.5
48209.3
48215.4
48200.7
48190.1
48199.9
48214.4
48209.9
48192.1
48192.2
48210.2
48214.4
48198.2
48189.7
48202
48214.8
48206.9
48189.9
48193.5
48213.1
48213.7
48193.3
48188.3
48206.4
48216.1
48202.3
48187.8
48195.3
48214
48212.1
48191.3
48188.2
48207.1
48215.1
48199.5
48186.9
48196.9
48213.7
48209
48188.4
48187.9
48208.7
48214
48194.9
48184.4
48198.3
48213.3
48204.9
48185.2
48186.8
48208
48211.3
48190
48181.2
48197.3
48211.1
48198.9
48179.7
48183.4
48205.3
48206.3
48182.6
48175.1
48191.7
48204.3
48189.9
48171.8
48176.2
48196.7
48195.1
48169.5
48164.2
48182.1
48192
48171.5
48155.5
48160.7
48179.1
48174.2
48148.5
48143.5
48156.2
48164.5
48143.3
48128.6
48129.6
48142.5
48134.6
48108.8
48104
48110.1
48114.7
48086.4
48072.4
48070.3
48077.4
48061.1
48025.7
48017.2
48018.1
48021.1
47969.3
47943.6
47937.9
47948
47911.4
47843.8
47824.9
47825.5
47820.4
47702.1
47651
47636.1
47647.2
47521.3
47369.5
47252.1
47100.2
46719.9
45599.1
42093.6
31205.7
26838.7
25465.6
25112
25026.6
25006.3
25001.5
25000.4
25000.1
25000
25000
25000
25000
25000
25000
25000
25000
25000
25000
25000
25000
25000
25000
25000
25000
25000
25000
25000
25000
25000
25000
25000
25000
25000
25000
25000
25000
25000
25000
25000
25000
25000
25000
25000
25000
25000
25000
25000
25000
25000
25000
25000
25000
25000
25000
25000
25000
25000
25000
25000
25000
25000
25000
25000
25000
25000
25000
25000
25000
25000
25000
25000
25000
25000
25000
25000
25000
25000
25000
25000
25000
25000
25000
25000
25000
25000
25000
25000
25000
25000
25000
25000
25000
25000
25000
25000
25000
25000
25000
25000
25000
25000
25000
25000
25000
25000
25000
25000
25000
25000
25000
25000
25000
25000
25000
25000
25000
25000
25000
25000
25000
25000
25000
25000
25000
25000
25000
25000
25000
25000
25000
25000
25000
25000
25000
25000
25000
25000
25000
25000
25000
25000
25000
25000
25000
25000
25000
25000
25000
25000
25000
25000
25000
25000
25000
25000
25000
25000
25000
25000
25000
25000
25000
25000
25000
25000
25000
25000
25000
25000
25000
25000
25000
25000
25000
25000
25000
25000
25000
25000
25000
25000
25000
25000
25000
25000
25000
25000
25000
25000
25000
25000
25000
25000
25000
25000
25000
25000
25000
25000
25000
25000
25000
25000
25000
25000
25000
25000
25000
25000
25000
25000
25000
25000
25000
25000
25000
25000
25000
25000
25000
25000
25000
25000
25000
25000
25000
25000
25000
25000
25000
25000
25000
25000
25000
25000
25000
25000
25000
25000
25000
)
;

boundaryField
{
    sides
    {
        type            zeroGradient;
    }
    empty
    {
        type            empty;
    }
}


// ************************************************************************* //
