/*--------------------------------*- C++ -*----------------------------------*\
| =========                 |                                                 |
| \\      /  F ield         | OpenFOAM: The Open Source CFD Toolbox           |
|  \\    /   O peration     | Version:  4.1                                   |
|   \\  /    A nd           | Web:      www.OpenFOAM.org                      |
|    \\/     M anipulation  |                                                 |
\*---------------------------------------------------------------------------*/
FoamFile
{
    version     2.0;
    format      ascii;
    class       surfaceScalarField;
    location    "0.0048";
    object      phi;
}
// * * * * * * * * * * * * * * * * * * * * * * * * * * * * * * * * * * * * * //

dimensions      [1 0 -1 0 0 0 0];

internalField   nonuniform List<scalar> 
999
(
-1.5298e-11
-1.24061e-11
-1.69749e-11
-1.62004e-11
-1.15534e-11
-7.08411e-12
-7.07701e-12
-2.20268e-12
-1.3074e-12
-9.80549e-13
8.66862e-13
-6.05382e-12
-1.48006e-11
-1.48148e-11
-1.13474e-11
-1.13971e-11
-1.96323e-11
-1.84954e-11
-1.19726e-11
-1.16387e-11
-1.05089e-11
-1.73372e-11
-2.35048e-11
-2.24816e-11
-2.19345e-11
-2.54872e-11
-2.33626e-11
-2.91109e-11
-2.71854e-11
-3.24434e-11
-3.91935e-11
-3.87317e-11
-4.62563e-11
-4.67679e-11
-4.03446e-11
-4.30305e-11
-4.58158e-11
-4.43166e-11
-4.77556e-11
-4.22915e-11
-3.78932e-11
-3.72751e-11
-4.55245e-11
-4.41531e-11
-4.80895e-11
-4.39755e-11
-4.69029e-11
-5.41931e-11
-4.75495e-11
-5.03846e-11
-5.65308e-11
-5.94298e-11
-6.04743e-11
-5.19194e-11
-5.18554e-11
-5.84919e-11
-6.04317e-11
-6.05098e-11
-6.52847e-11
-6.70326e-11
-6.68479e-11
-6.25704e-11
-6.22862e-11
-6.5441e-11
-7.00169e-11
-6.35296e-11
-6.44746e-11
-5.48681e-11
-5.12088e-11
-4.85727e-11
-4.05649e-11
-3.68345e-11
-3.72395e-11
-3.79643e-11
-4.16378e-11
-3.47455e-11
-2.95231e-11
-3.16476e-11
-3.282e-11
-2.54445e-11
-2.81517e-11
-2.56719e-11
-2.39382e-11
-2.1771e-11
-1.68754e-11
-1.43601e-11
-1.58025e-11
-1.28892e-11
-8.91731e-12
-3.28271e-12
-3.07665e-12
-5.41434e-12
7.10543e-14
1.45661e-12
1.38556e-12
9.20863e-12
1.92486e-11
2.86633e-11
3.13349e-11
3.59321e-11
3.58753e-11
4.17018e-11
3.37863e-11
2.88054e-11
3.48166e-11
2.58069e-11
2.68301e-11
3.06812e-11
2.64322e-11
3.42482e-11
3.37721e-11
2.90896e-11
2.98499e-11
3.05747e-11
3.25642e-11
3.31326e-11
3.29692e-11
3.47598e-11
4.0103e-11
4.22986e-11
5.01785e-11
5.48042e-11
6.21299e-11
5.99343e-11
5.41718e-11
4.60574e-11
5.43352e-11
5.40936e-11
5.90461e-11
6.12488e-11
5.5266e-11
5.40012e-11
4.82885e-11
4.98019e-11
4.85656e-11
4.75069e-11
5.35039e-11
5.23386e-11
5.1152e-11
5.66871e-11
5.76819e-11
6.1064e-11
5.83142e-11
5.96998e-11
5.46621e-11
5.70495e-11
6.1064e-11
6.80203e-11
7.19567e-11
6.97398e-11
6.93205e-11
6.47802e-11
6.35865e-11
5.80158e-11
5.62324e-11
4.81393e-11
5.63105e-11
5.81011e-11
5.02425e-11
4.70237e-11
4.4416e-11
3.64508e-11
3.13847e-11
2.53664e-11
2.62048e-11
2.45279e-11
1.60938e-11
1.08571e-11
1.78133e-11
2.57785e-11
2.81517e-11
3.57829e-11
3.56266e-11
3.88241e-11
4.62279e-11
3.80069e-11
3.03189e-11
2.97504e-11
3.0532e-11
3.36655e-11
2.86349e-11
2.65885e-11
3.3566e-11
4.08491e-11
4.58868e-11
3.70264e-11
2.97433e-11
3.5314e-11
3.93143e-11
4.48779e-11
4.26112e-11
4.62421e-11
4.27818e-11
4.24265e-11
4.02451e-11
4.18368e-11
4.08349e-11
3.97478e-11
4.10623e-11
3.85043e-11
4.37268e-11
4.72582e-11
4.75708e-11
4.13394e-11
3.5854e-11
3.19957e-11
3.48308e-11
3.50227e-11
4.35278e-11
4.34923e-11
4.31086e-11
3.76588e-11
3.87388e-11
3.92149e-11
3.77725e-11
3.9428e-11
3.71188e-11
2.90683e-11
2.49614e-11
3.18821e-11
3.17968e-11
2.81801e-11
2.11244e-11
1.57812e-11
1.52056e-11
1.8197e-11
2.31708e-11
2.70646e-11
2.60059e-11
2.32703e-11
2.386e-11
2.9857e-11
3.43476e-11
3.90301e-11
3.92362e-11
3.36158e-11
2.68443e-11
2.35829e-11
2.61196e-11
3.15765e-11
3.83764e-11
4.47287e-11
3.76659e-11
3.2351e-11
3.6728e-11
4.22986e-11
3.92859e-11
3.76446e-11
3.76019e-11
3.75593e-11
4.28528e-11
3.62803e-11
3.9428e-11
4.62776e-11
6.89866e-11
1.20117e-10
2.33541e-10
4.76483e-10
9.88109e-10
2.0615e-09
4.29719e-09
8.88816e-09
1.82299e-08
3.70738e-08
7.47832e-08
1.49624e-07
2.96937e-07
5.84478e-07
1.14095e-06
2.20857e-06
4.2389e-06
8.06551e-06
1.52121e-05
2.84352e-05
5.26707e-05
9.66617e-05
0.000175727
0.000316401
0.000564123
0.00099576
0.00173975
0.00300795
0.00514515
0.00870477
0.0145622
0.0240809
0.0393511
0.0635225
0.101256
0.159316
0.247317
0.378615
0.571304
0.849228
1.24284
1.78966
2.534
3.52548
4.81601
6.45432
8.47737
10.8954
13.6753
16.7657
20.1258
23.724
27.5312
31.5193
35.6609
39.9308
44.3061
48.7663
53.294
57.8739
62.4932
67.1409
71.8079
76.4864
81.1698
85.8527
90.5303
95.1986
99.8542
104.494
109.116
113.717
118.296
122.852
127.382
131.885
136.36
140.807
145.224
149.611
153.966
158.29
162.582
166.841
171.067
175.26
179.419
183.544
187.635
191.691
195.712
199.699
203.65
207.567
211.448
215.293
219.104
222.879
226.618
230.322
233.99
237.622
241.219
244.78
248.305
251.795
255.249
258.668
262.051
265.398
268.71
271.987
275.228
278.433
281.603
284.738
287.838
290.903
293.932
296.926
299.885
302.81
305.699
308.553
311.373
314.157
316.907
319.622
322.303
324.948
327.559
330.135
332.677
335.184
337.656
340.094
342.497
344.865
347.198
349.497
351.76
353.989
356.182
358.34
360.462
362.549
364.6
366.615
368.593
370.535
372.44
374.307
376.137
377.927
379.681
381.392
383.07
384.694
386.297
387.83
389.353
390.797
392.224
393.595
394.898
396.207
397.382
398.599
399.691
400.745
401.794
402.685
403.617
404.444
405.172
405.933
406.544
407.108
407.673
408.089
408.484
408.858
409.108
409.342
409.555
409.68
409.782
409.881
409.928
409.946
409.971
409.981
409.976
409.967
409.963
409.964
409.957
409.94
409.922
409.908
409.892
409.877
409.866
409.855
409.847
409.841
409.837
409.833
409.832
409.83
409.828
409.825
409.823
409.82
409.817
409.815
409.813
409.81
409.808
409.807
409.804
409.801
409.799
409.796
409.793
409.791
409.789
409.786
409.784
409.781
409.779
409.776
409.773
409.771
409.769
409.765
409.762
409.76
409.757
409.754
409.751
409.748
409.744
409.741
409.738
409.735
409.732
409.729
409.725
409.722
409.719
409.715
409.71
409.707
409.704
409.701
409.696
409.692
409.689
409.685
409.68
409.676
409.673
409.669
409.663
409.657
409.654
409.65
409.644
409.637
409.633
409.629
409.624
409.617
409.611
409.607
409.604
409.598
409.589
409.582
409.577
409.573
409.566
409.556
409.546
409.54
409.535
409.528
409.518
409.505
409.494
409.486
409.481
409.476
409.464
409.448
409.432
409.42
409.413
409.408
409.4
409.382
409.361
409.34
409.325
409.317
409.31
409.3
409.272
409.239
409.209
409.188
409.179
409.179
409.154
409.101
409.085
409.067
409.047
409.043
409.04
408.944
408.901
408.814
408.694
408.577
408.48
408.417
408.387
408.379
408.4
408.538
408.702
408.829
408.853
408.506
405.758
393.56
369.215
347.483
329.552
314.689
302.787
293.71
287.332
282.823
279.469
276.952
275.477
274.881
274.358
273.638
273.308
273.463
273.612
273.438
273.09
273.107
273.508
273.561
273.147
273.046
273.39
273.571
273.345
273.059
273.19
273.564
273.555
273.112
273.047
273.476
273.606
273.325
273.075
273.218
273.566
273.531
273.115
273.079
273.521
273.616
273.245
273.059
273.293
273.599
273.5
273.1
273.1
273.541
273.612
273.204
273.067
273.348
273.6
273.454
273.092
273.135
273.568
273.606
273.135
273.043
273.467
273.645
273.341
273.043
273.21
273.618
273.579
273.092
273.036
273.534
273.661
273.268
273.03
273.254
273.621
273.537
273.077
273.053
273.558
273.656
273.182
273.004
273.331
273.645
273.459
273.027
273.07
273.579
273.645
273.105
272.97
273.376
273.64
273.381
272.985
273.074
273.575
273.597
273.022
272.919
273.4
273.621
273.271
272.916
273.032
273.516
273.512
272.942
272.851
273.332
273.529
273.077
272.791
272.967
273.418
273.318
272.756
272.697
273.177
273.349
272.808
272.602
272.715
273.114
273.011
272.5
272.459
272.76
272.948
272.358
272.227
272.297
272.619
272.37
271.884
271.869
272.054
272.252
271.413
271.297
271.373
271.743
271.288
270.474
270.451
270.707
270.957
269.327
269.111
269.281
269.967
268.582
267.134
267.122
267.747
267.889
264.009
263.039
262.273
261.226
257.733
231.872
126.077
40.9802
11.0374
2.7053
0.644266
0.15247
0.0360478
0.00852139
0.00201431
0.000476108
0.000112527
2.65941e-05
6.28492e-06
1.48525e-06
3.50981e-07
8.29342e-08
1.95915e-08
4.62336e-09
1.08615e-09
2.50434e-10
5.40368e-11
7.57971e-12
-4.58478e-12
-5.99343e-12
-5.75717e-12
-6.6418e-12
-8.09841e-12
-8.28315e-12
-7.53886e-12
-5.11413e-12
-3.02691e-12
-2.51177e-12
-9.04166e-13
1.10667e-12
-5.27578e-13
-2.04459e-12
-1.73195e-12
-1.59872e-14
-1.72129e-12
-1.77991e-12
-7.37188e-13
-1.77991e-12
8.88178e-15
1.36602e-12
1.18661e-12
3.40172e-12
5.139e-12
6.24567e-12
7.38964e-12
7.3257e-12
8.91731e-12
7.9865e-12
8.39862e-12
1.03881e-11
1.01963e-11
9.47331e-12
8.55671e-12
9.92451e-12
9.857e-12
8.71303e-12
8.54605e-12
8.66507e-12
6.89404e-12
7.81064e-12
7.76978e-12
5.33262e-12
4.17621e-12
4.07496e-12
4.56701e-12
5.62039e-12
5.22071e-12
6.14975e-12
5.85665e-12
4.87788e-12
6.04317e-12
7.08233e-12
6.92957e-12
5.7625e-12
5.1994e-12
3.95239e-12
4.5759e-12
5.18874e-12
4.79794e-12
5.44453e-12
6.03428e-12
6.05027e-12
6.23501e-12
6.48015e-12
7.15694e-12
5.95257e-12
4.43912e-12
2.7498e-12
1.18128e-12
1.01608e-12
1.90603e-12
5.25802e-13
-1.44951e-12
-1.94866e-12
-1.98774e-12
-1.71241e-12
3.01981e-13
7.42517e-13
-1.27898e-13
1.42997e-12
2.52598e-12
1.27898e-12
1.45484e-12
2.73204e-12
7.01661e-13
1.66089e-12
3.45146e-12
4.56524e-12
3.04468e-12
3.47811e-12
2.75335e-12
2.39986e-12
4.14779e-12
5.68079e-12
6.88338e-12
6.80878e-12
7.9492e-12
7.95808e-12
6.65779e-12
5.24381e-12
5.42499e-12
6.84253e-12
7.1676e-12
8.20144e-12
8.83205e-12
8.32756e-12
6.37179e-12
4.67004e-12
4.3876e-12
3.46212e-12
4.54925e-12
6.1533e-12
7.46958e-12
7.67919e-12
9.48752e-12
1.09974e-11
9.43601e-12
9.02745e-12
7.3932e-12
6.95621e-12
4.84057e-12
3.49409e-12
1.77636e-12
3.02336e-12
2.37499e-12
4.43023e-12
6.84075e-12
8.43769e-12
1.00009e-11
9.77884e-12
1.06475e-11
1.24043e-11
1.36655e-11
1.42517e-11
1.60441e-11
1.65326e-11
1.82343e-11
1.92522e-11
2.13536e-11
2.17586e-11
2.13856e-11
2.23324e-11
2.21103e-11
2.23501e-11
2.02256e-11
1.96891e-11
1.81988e-11
1.72431e-11
1.65841e-11
1.59464e-11
1.57936e-11
1.7252e-11
1.60298e-11
1.57936e-11
1.69269e-11
1.75948e-11
1.90887e-11
1.97247e-11
1.91935e-11
1.80478e-11
1.68399e-11
1.57989e-11
1.5234e-11
1.61808e-11
1.83622e-11
2.00444e-11
2.01297e-11
2.0913e-11
2.13767e-11
2.08349e-11
2.19522e-11
2.15596e-11
2.35421e-11
2.54907e-11
2.70468e-11
2.53326e-11
2.54516e-11
2.31211e-11
2.17e-11
2.15437e-11
2.18527e-11
2.39151e-11
2.27907e-11
2.41478e-11
2.48139e-11
2.69011e-11
2.64997e-11
2.85301e-11
2.87095e-11
2.85159e-11
2.90914e-11
2.98357e-11
2.97948e-11
3.01696e-11
3.11591e-11
3.34328e-11
3.2415e-11
3.27098e-11
3.25873e-11
3.18732e-11
3.09957e-11
3.3463e-11
3.35429e-11
3.18892e-11
3.01927e-11
2.93099e-11
2.82157e-11
2.67253e-11
2.59561e-11
2.64606e-11
2.56044e-11
2.42935e-11
2.35154e-11
2.48921e-11
2.36007e-11
2.3082e-11
2.29008e-11
)
;

boundaryField
{
    sides
    {
        type            calculated;
        value           nonuniform List<scalar> 2(2.13506e-11 2.22658e-11);
    }
    empty
    {
        type            empty;
        value           nonuniform 0();
    }
}


// ************************************************************************* //
