/*--------------------------------*- C++ -*----------------------------------*\
| =========                 |                                                 |
| \\      /  F ield         | OpenFOAM: The Open Source CFD Toolbox           |
|  \\    /   O peration     | Version:  4.1                                   |
|   \\  /    A nd           | Web:      www.OpenFOAM.org                      |
|    \\/     M anipulation  |                                                 |
\*---------------------------------------------------------------------------*/
FoamFile
{
    version     2.0;
    format      ascii;
    class       volScalarField;
    location    "0.0048";
    object      T;
}
// * * * * * * * * * * * * * * * * * * * * * * * * * * * * * * * * * * * * * //

dimensions      [0 0 0 1 0 0 0];

internalField   nonuniform List<scalar> 
1000
(
400
400
400
400
400
400
400
400
400
400
400
400
400
400
400
400
400
400
400
400
400
400
400
400
400
400
400
400
400
400
400
400
400
400
400
400
400
400
400
400
400
400
400
400
400
400
400
400
400
400
400
400
400
400
400
400
400
400
400
400
400
400
400
400
400
400
400
400
400
400
400
400
400
400
400
400
400
400
400
400
400
400
400
400
400
400
400
400
400
400
400
400
400
400
400
400
400
400
400
400
400
400
400
400
400
400
400
400
400
400
400
400
400
400
400
400
400
400
400
400
400
400
400
400
400
400
400
400
400
400
400
400
400
400
400
400
400
400
400
400
400
400
400
400
400
400
400
400
400
400
400
400
400
400
400
400
400
400
400
400
400
400
400
400
400
400
400
400
400
400
400
400
400
400
400
400
400
400
400
400
400
400
400
400
400
400
400
400
400
400
400
400
400
400
400
400
400
400
400
400
400
400
400
400
400
400
400
400
400
400
400
400
400
400
400
400
400
400
400
400
400
400
400
400
400
400
400
400
400
400
400
400
400
400
400
400
400
400
400
400
400
400
400
400
400
400
400
400
400
400
400
400
400
400
400
400
400
400
400
400
400
400
400
400
400
400
400
400
400
400
400
400
400
400
400
400
400
400
400
400
400
400
400
399.999
399.999
399.998
399.997
399.994
399.991
399.986
399.977
399.965
399.947
399.921
399.883
399.83
399.756
399.657
399.527
399.359
399.149
398.892
398.59
398.248
397.871
397.462
397.024
396.562
396.076
395.571
395.049
394.512
393.962
393.401
392.83
392.252
391.666
391.075
390.478
389.876
389.27
388.661
388.048
387.433
386.815
386.196
385.574
384.95
384.325
383.698
383.07
382.442
381.812
381.181
380.55
379.917
379.285
378.652
378.018
377.384
376.75
376.115
375.481
374.846
374.211
373.576
372.941
372.306
371.671
371.037
370.402
369.768
369.134
368.5
367.867
367.234
366.601
365.969
365.337
364.706
364.075
363.445
362.815
362.186
361.558
360.93
360.303
359.677
359.052
358.427
357.803
357.18
356.558
355.937
355.317
354.699
354.081
353.464
352.849
352.234
351.621
351.01
350.4
349.791
349.184
348.578
347.974
347.372
346.772
346.174
345.577
344.983
344.391
343.801
343.214
342.629
342.048
341.468
340.892
340.319
339.75
339.184
338.621
338.063
337.509
336.959
336.415
335.874
335.343
334.809
334.297
333.762
333.287
332.733
332.32
331.725
331.392
330.767
330.471
329.903
329.537
329.138
328.642
328.39
327.897
327.596
327.3
326.873
326.688
326.364
326.066
325.928
325.644
325.454
325.353
325.144
325.031
324.971
324.844
324.78
324.757
324.701
324.666
324.664
324.656
324.643
324.644
324.648
324.65
324.65
324.652
324.656
324.665
324.671
324.678
324.688
324.691
324.696
324.702
324.703
324.705
324.708
324.71
324.71
324.712
324.714
324.715
324.716
324.717
324.719
324.72
324.721
324.723
324.725
324.726
324.728
324.729
324.73
324.732
324.734
324.735
324.736
324.739
324.74
324.741
324.743
324.746
324.747
324.748
324.75
324.753
324.754
324.756
324.758
324.76
324.761
324.764
324.766
324.768
324.77
324.772
324.774
324.777
324.779
324.781
324.783
324.786
324.789
324.791
324.793
324.797
324.8
324.801
324.804
324.807
324.811
324.814
324.815
324.819
324.824
324.827
324.829
324.832
324.837
324.841
324.844
324.846
324.851
324.857
324.861
324.863
324.866
324.872
324.879
324.883
324.886
324.889
324.896
324.904
324.91
324.913
324.916
324.921
324.93
324.94
324.947
324.951
324.954
324.96
324.971
324.984
324.995
325.001
325.005
325.009
325.019
325.036
325.054
325.067
325.075
325.079
325.084
325.098
325.124
325.15
325.169
325.18
325.186
325.193
325.212
325.252
325.296
325.332
325.356
325.368
325.374
325.381
325.417
325.511
325.618
325.708
325.772
325.806
325.816
325.81
325.752
325.614
325.505
325.456
325.511
326.426
331.909
349.101
371.673
393.754
414.192
432.045
446.846
458.586
467.527
474.03
478.556
481.625
483.676
485.001
485.789
486.223
486.498
486.701
486.798
486.8
486.792
486.826
486.863
486.846
486.792
486.788
486.836
486.842
486.788
486.764
486.803
486.833
486.803
486.754
486.761
486.814
486.816
486.759
486.74
486.781
486.807
486.775
486.731
486.744
486.794
486.79
486.729
486.717
486.768
486.789
486.748
486.709
486.73
486.777
486.768
486.708
486.702
486.754
486.77
486.723
486.691
486.721
486.763
486.745
486.687
486.69
486.751
486.757
486.695
486.673
486.723
486.756
486.72
486.67
486.684
486.744
486.744
486.678
486.663
486.717
486.745
486.703
486.658
486.679
486.734
486.726
486.66
486.651
486.713
486.734
486.679
486.641
486.675
486.724
486.706
486.641
486.639
486.704
486.72
486.657
486.624
486.665
486.711
486.682
486.618
486.621
486.69
486.699
486.627
486.6
486.644
486.688
486.653
486.591
486.597
486.661
486.664
486.583
486.562
486.613
486.649
486.594
486.539
486.547
486.606
486.6
486.518
486.501
486.534
486.565
486.506
486.454
486.453
486.492
486.481
486.398
486.384
486.4
486.418
486.333
486.287
486.283
486.305
486.269
486.155
486.126
486.121
486.144
486.002
485.909
485.886
485.93
485.854
485.61
485.553
485.571
485.572
485.199
485.067
485.048
485.026
484.681
484.252
483.852
483.327
482.204
479.273
470.298
428.108
408.406
402.134
400.513
400.122
400.029
400.007
400.002
400
400
400
400
400
400
400
400
400
400
400
400
400
400
400
400
400
400
400
400
400
400
400
400
400
400
400
400
400
400
400
400
400
400
400
400
400
400
400
400
400
400
400
400
400
400
400
400
400
400
400
400
400
400
400
400
400
400
400
400
400
400
400
400
400
400
400
400
400
400
400
400
400
400
400
400
400
400
400
400
400
400
400
400
400
400
400
400
400
400
400
400
400
400
400
400
400
400
400
400
400
400
400
400
400
400
400
400
400
400
400
400
400
400
400
400
400
400
400
400
400
400
400
400
400
400
400
400
400
400
400
400
400
400
400
400
400
400
400
400
400
400
400
400
400
400
400
400
400
400
400
400
400
400
400
400
400
400
400
400
400
400
400
400
400
400
400
400
400
400
400
400
400
400
400
400
400
400
400
400
400
400
400
400
400
400
400
400
400
400
400
400
400
400
400
400
400
400
400
400
400
400
400
400
400
400
400
400
400
400
400
400
400
400
400
400
400
400
400
400
400
400
400
400
400
400
400
400
400
400
400
400
400
)
;

boundaryField
{
    sides
    {
        type            zeroGradient;
    }
    empty
    {
        type            empty;
    }
}


// ************************************************************************* //
