/*--------------------------------*- C++ -*----------------------------------*\
| =========                 |                                                 |
| \\      /  F ield         | OpenFOAM: The Open Source CFD Toolbox           |
|  \\    /   O peration     | Version:  4.1                                   |
|   \\  /    A nd           | Web:      www.OpenFOAM.org                      |
|    \\/     M anipulation  |                                                 |
\*---------------------------------------------------------------------------*/
FoamFile
{
    version     2.0;
    format      ascii;
    class       volVectorField;
    location    "0.0048";
    object      U;
}
// * * * * * * * * * * * * * * * * * * * * * * * * * * * * * * * * * * * * * //

dimensions      [0 1 -1 0 0 0 0];

internalField   nonuniform List<vector> 
1000
(
(-6.36563e-12 0 0)
(-2.53532e-12 0 0)
(-5.2447e-12 0 0)
(-3.78423e-12 0 0)
(-4.91806e-12 0 0)
(-2.39084e-12 0 0)
(-1.82558e-12 0 0)
(-2.00428e-12 0 0)
(8.25243e-13 0 0)
(-1.77869e-12 0 0)
(1.4051e-12 0 0)
(-1.03339e-12 0 0)
(-2.20734e-12 0 0)
(-6.37161e-12 0 0)
(-2.05771e-12 0 0)
(-4.00529e-12 0 0)
(-3.16447e-12 0 0)
(-7.6387e-12 0 0)
(-2.80134e-12 0 0)
(-3.93056e-12 0 0)
(-2.73071e-12 0 0)
(-3.64679e-12 0 0)
(-5.82062e-12 0 0)
(-8.03479e-12 0 0)
(-4.68954e-12 0 0)
(-8.38801e-12 0 0)
(-5.84512e-12 0 0)
(-7.85272e-12 0 0)
(-8.19494e-12 0 0)
(-7.92277e-12 0 0)
(-1.13092e-11 0 0)
(-1.03211e-11 0 0)
(-1.28721e-11 0 0)
(-1.31244e-11 0 0)
(-1.35511e-11 0 0)
(-9.91047e-12 0 0)
(-1.51982e-11 0 0)
(-1.06154e-11 0 0)
(-1.52492e-11 0 0)
(-1.18043e-11 0 0)
(-1.28598e-11 0 0)
(-8.62254e-12 0 0)
(-1.39845e-11 0 0)
(-1.14282e-11 0 0)
(-1.46512e-11 0 0)
(-1.20294e-11 0 0)
(-1.30899e-11 0 0)
(-1.4414e-11 0 0)
(-1.56085e-11 0 0)
(-1.2702e-11 0 0)
(-1.68845e-11 0 0)
(-1.54734e-11 0 0)
(-1.77671e-11 0 0)
(-1.65278e-11 0 0)
(-1.36716e-11 0 0)
(-1.67934e-11 0 0)
(-1.65797e-11 0 0)
(-1.81839e-11 0 0)
(-1.72649e-11 0 0)
(-2.04316e-11 0 0)
(-1.80748e-11 0 0)
(-1.97115e-11 0 0)
(-1.64554e-11 0 0)
(-1.9862e-11 0 0)
(-1.86352e-11 0 0)
(-2.01838e-11 0 0)
(-1.74903e-11 0 0)
(-1.87099e-11 0 0)
(-1.33886e-11 0 0)
(-1.65159e-11 0 0)
(-1.09129e-11 0 0)
(-1.2569e-11 0 0)
(-8.44333e-12 0 0)
(-1.26459e-11 0 0)
(-1.02214e-11 0 0)
(-1.26552e-11 0 0)
(-7.8634e-12 0 0)
(-9.00779e-12 0 0)
(-9.63068e-12 0 0)
(-8.46829e-12 0 0)
(-6.91318e-12 0 0)
(-8.69647e-12 0 0)
(-6.5107e-12 0 0)
(-6.75483e-12 0 0)
(-6.64362e-12 0 0)
(-2.39515e-12 0 0)
(-5.64905e-12 0 0)
(-3.16931e-12 0 0)
(-4.8324e-12 0 0)
(-2.6087e-13 0 0)
(-1.68266e-12 0 0)
(9.80183e-14 0 0)
(-3.27732e-12 0 0)
(3.29516e-12 0 0)
(-2.32244e-12 0 0)
(2.96547e-12 0 0)
(2.99979e-12 0 0)
(7.12703e-12 0 0)
(8.95496e-12 0 0)
(9.6579e-12 0 0)
(1.03717e-11 0 0)
(1.1079e-11 0 0)
(1.21295e-11 0 0)
(7.44212e-12 0 0)
(1.00016e-11 0 0)
(8.86567e-12 0 0)
(6.5715e-12 0 0)
(9.46253e-12 0 0)
(7.15027e-12 0 0)
(9.05014e-12 0 0)
(1.03051e-11 0 0)
(8.55689e-12 0 0)
(8.61348e-12 0 0)
(8.16989e-12 0 0)
(8.92554e-12 0 0)
(1.01718e-11 0 0)
(9.52118e-12 0 0)
(8.52563e-12 0 0)
(1.18837e-11 0 0)
(1.13547e-11 0 0)
(1.29352e-11 0 0)
(1.57454e-11 0 0)
(1.62674e-11 0 0)
(1.84839e-11 0 0)
(1.63636e-11 0 0)
(1.42389e-11 0 0)
(1.35427e-11 0 0)
(1.70995e-11 0 0)
(1.49978e-11 0 0)
(1.81521e-11 0 0)
(1.63318e-11 0 0)
(1.59084e-11 0 0)
(1.5242e-11 0 0)
(1.31753e-11 0 0)
(1.47993e-11 0 0)
(1.35969e-11 0 0)
(1.41559e-11 0 0)
(1.59396e-11 0 0)
(1.44196e-11 0 0)
(1.52437e-11 0 0)
(1.67554e-11 0 0)
(1.74918e-11 0 0)
(1.67454e-11 0 0)
(1.73959e-11 0 0)
(1.62939e-11 0 0)
(1.53322e-11 0 0)
(1.77118e-11 0 0)
(1.77967e-11 0 0)
(2.09484e-11 0 0)
(1.99654e-11 0 0)
(2.06239e-11 0 0)
(1.83221e-11 0 0)
(2.00717e-11 0 0)
(1.59591e-11 0 0)
(1.75098e-11 0 0)
(1.42207e-11 0 0)
(1.44309e-11 0 0)
(1.7361e-11 0 0)
(1.57381e-11 0 0)
(1.40314e-11 0 0)
(1.33168e-11 0 0)
(1.14517e-11 0 0)
(9.56579e-12 0 0)
(8.4294e-12 0 0)
(6.94137e-12 0 0)
(7.77043e-12 0 0)
(5.92718e-12 0 0)
(3.1359e-12 0 0)
(3.36553e-12 0 0)
(6.5194e-12 0 0)
(7.85161e-12 0 0)
(9.17819e-12 0 0)
(1.03825e-11 0 0)
(1.10447e-11 0 0)
(1.15887e-11 0 0)
(1.36119e-11 0 0)
(8.1599e-12 0 0)
(9.86408e-12 0 0)
(7.62031e-12 0 0)
(1.03065e-11 0 0)
(8.46439e-12 0 0)
(7.4926e-12 0 0)
(8.5077e-12 0 0)
(1.09614e-11 0 0)
(1.20433e-11 0 0)
(1.36597e-11 0 0)
(7.91764e-12 0 0)
(9.48229e-12 0 0)
(1.07753e-11 0 0)
(1.17306e-11 0 0)
(1.37462e-11 0 0)
(1.15347e-11 0 0)
(1.44477e-11 0 0)
(1.06371e-11 0 0)
(1.30809e-11 0 0)
(1.06785e-11 0 0)
(1.33826e-11 0 0)
(9.88787e-12 0 0)
(1.37152e-11 0 0)
(9.05429e-12 0 0)
(1.38155e-11 0 0)
(1.15713e-11 0 0)
(1.51182e-11 0 0)
(1.22194e-11 0 0)
(1.17031e-11 0 0)
(8.42673e-12 0 0)
(1.04849e-11 0 0)
(9.39355e-12 0 0)
(1.14021e-11 0 0)
(1.3045e-11 0 0)
(1.24953e-11 0 0)
(1.16543e-11 0 0)
(1.04785e-11 0 0)
(1.20762e-11 0 0)
(9.30631e-12 0 0)
(1.34149e-11 0 0)
(9.0283e-12 0 0)
(1.1889e-11 0 0)
(5.23178e-12 0 0)
(9.71517e-12 0 0)
(7.92278e-12 0 0)
(1.05689e-11 0 0)
(5.41555e-12 0 0)
(7.00443e-12 0 0)
(1.61876e-12 0 0)
(7.36039e-12 0 0)
(3.74361e-12 0 0)
(8.8512e-12 0 0)
(7.18413e-12 0 0)
(7.8154e-12 0 0)
(5.41746e-12 0 0)
(8.07914e-12 0 0)
(9.37312e-12 0 0)
(1.01571e-11 0 0)
(1.25784e-11 0 0)
(9.37557e-12 0 0)
(1.04978e-11 0 0)
(4.86214e-12 0 0)
(8.70296e-12 0 0)
(6.63814e-12 0 0)
(1.19994e-11 0 0)
(1.05793e-11 0 0)
(1.41045e-11 0 0)
(8.28036e-12 0 0)
(1.10198e-11 0 0)
(9.8975e-12 0 0)
(1.34137e-11 0 0)
(1.01507e-11 0 0)
(1.17919e-11 0 0)
(9.41044e-12 0 0)
(1.30144e-11 0 0)
(1.06401e-11 0 0)
(1.13077e-11 0 0)
(1.10748e-11 0 0)
(1.61125e-11 0 0)
(2.51615e-11 0 0)
(4.76292e-11 0 0)
(9.34278e-11 0 0)
(1.94866e-10 0 0)
(4.02559e-10 0 0)
(8.43198e-10 0 0)
(1.75063e-09 0 0)
(3.60934e-09 0 0)
(7.37529e-09 0 0)
(1.49448e-08 0 0)
(3.00394e-08 0 0)
(5.98865e-08 0 0)
(1.18424e-07 0 0)
(2.3225e-07 0 0)
(4.51696e-07 0 0)
(8.71077e-07 0 0)
(1.66546e-06 0 0)
(3.15657e-06 0 0)
(5.92983e-06 0 0)
(1.10394e-05 0 0)
(2.03636e-05 0 0)
(3.72134e-05 0 0)
(6.73597e-05 0 0)
(0.000120747 0 0)
(0.000214308 0 0)
(0.000376529 0 0)
(0.000654722 0 0)
(0.00112645 0 0)
(0.00191714 0 0)
(0.00322672 0 0)
(0.00536922 0 0)
(0.00883011 0 0)
(0.0143477 0 0)
(0.0230249 0 0)
(0.0364793 0 0)
(0.0570353 0 0)
(0.0879613 0 0)
(0.133745 0 0)
(0.200388 0 0)
(0.295685 0 0)
(0.429431 0 0)
(0.613463 0 0)
(0.861439 0 0)
(1.18821 0 0)
(1.60859 0 0)
(2.13535 0 0)
(2.77565 0 0)
(3.52727 0 0)
(4.37997 0 0)
(5.32214 0 0)
(6.34445 0 0)
(7.43907 0 0)
(8.59858 0 0)
(9.81573 0 0)
(11.0836 0 0)
(12.3958 0 0)
(13.7465 0 0)
(15.1307 0 0)
(16.5438 0 0)
(17.9821 0 0)
(19.4423 0 0)
(20.9217 0 0)
(22.4179 0 0)
(23.929 0 0)
(25.4532 0 0)
(26.9891 0 0)
(28.5354 0 0)
(30.0912 0 0)
(31.6555 0 0)
(33.2275 0 0)
(34.8065 0 0)
(36.3919 0 0)
(37.9831 0 0)
(39.5797 0 0)
(41.1813 0 0)
(42.7874 0 0)
(44.3977 0 0)
(46.0119 0 0)
(47.6298 0 0)
(49.251 0 0)
(50.8753 0 0)
(52.5026 0 0)
(54.1325 0 0)
(55.765 0 0)
(57.3998 0 0)
(59.0369 0 0)
(60.6759 0 0)
(62.3169 0 0)
(63.9596 0 0)
(65.6039 0 0)
(67.2498 0 0)
(68.897 0 0)
(70.5456 0 0)
(72.1953 0 0)
(73.8461 0 0)
(75.4978 0 0)
(77.1505 0 0)
(78.8039 0 0)
(80.458 0 0)
(82.1127 0 0)
(83.768 0 0)
(85.4236 0 0)
(87.0796 0 0)
(88.7358 0 0)
(90.3922 0 0)
(92.0487 0 0)
(93.7051 0 0)
(95.3615 0 0)
(97.0177 0 0)
(98.6736 0 0)
(100.329 0 0)
(101.984 0 0)
(103.639 0 0)
(105.293 0 0)
(106.946 0 0)
(108.598 0 0)
(110.249 0 0)
(111.9 0 0)
(113.549 0 0)
(115.197 0 0)
(116.843 0 0)
(118.488 0 0)
(120.132 0 0)
(121.773 0 0)
(123.413 0 0)
(125.051 0 0)
(126.686 0 0)
(128.319 0 0)
(129.95 0 0)
(131.577 0 0)
(133.202 0 0)
(134.824 0 0)
(136.443 0 0)
(138.058 0 0)
(139.669 0 0)
(141.276 0 0)
(142.879 0 0)
(144.477 0 0)
(146.071 0 0)
(147.659 0 0)
(149.241 0 0)
(150.818 0 0)
(152.388 0 0)
(153.952 0 0)
(155.508 0 0)
(157.056 0 0)
(158.596 0 0)
(160.128 0 0)
(161.649 0 0)
(163.16 0 0)
(164.661 0 0)
(166.149 0 0)
(167.625 0 0)
(169.087 0 0)
(170.535 0 0)
(171.967 0 0)
(173.381 0 0)
(174.778 0 0)
(176.155 0 0)
(177.511 0 0)
(178.843 0 0)
(180.151 0 0)
(181.432 0 0)
(182.685 0 0)
(183.907 0 0)
(185.096 0 0)
(186.25 0 0)
(187.365 0 0)
(188.44 0 0)
(189.471 0 0)
(190.456 0 0)
(191.392 0 0)
(192.275 0 0)
(193.105 0 0)
(193.878 0 0)
(194.591 0 0)
(195.244 0 0)
(195.835 0 0)
(196.364 0 0)
(196.83 0 0)
(197.236 0 0)
(197.582 0 0)
(197.872 0 0)
(198.11 0 0)
(198.299 0 0)
(198.444 0 0)
(198.553 0 0)
(198.63 0 0)
(198.679 0 0)
(198.709 0 0)
(198.724 0 0)
(198.728 0 0)
(198.728 0 0)
(198.728 0 0)
(198.726 0 0)
(198.722 0 0)
(198.711 0 0)
(198.694 0 0)
(198.674 0 0)
(198.656 0 0)
(198.639 0 0)
(198.625 0 0)
(198.614 0 0)
(198.606 0 0)
(198.6 0 0)
(198.596 0 0)
(198.593 0 0)
(198.592 0 0)
(198.591 0 0)
(198.59 0 0)
(198.589 0 0)
(198.588 0 0)
(198.587 0 0)
(198.586 0 0)
(198.585 0 0)
(198.585 0 0)
(198.584 0 0)
(198.583 0 0)
(198.583 0 0)
(198.582 0 0)
(198.581 0 0)
(198.581 0 0)
(198.58 0 0)
(198.579 0 0)
(198.579 0 0)
(198.578 0 0)
(198.577 0 0)
(198.577 0 0)
(198.576 0 0)
(198.576 0 0)
(198.575 0 0)
(198.574 0 0)
(198.574 0 0)
(198.573 0 0)
(198.573 0 0)
(198.572 0 0)
(198.572 0 0)
(198.571 0 0)
(198.571 0 0)
(198.57 0 0)
(198.569 0 0)
(198.569 0 0)
(198.568 0 0)
(198.568 0 0)
(198.567 0 0)
(198.567 0 0)
(198.566 0 0)
(198.566 0 0)
(198.565 0 0)
(198.564 0 0)
(198.564 0 0)
(198.563 0 0)
(198.563 0 0)
(198.562 0 0)
(198.562 0 0)
(198.561 0 0)
(198.561 0 0)
(198.56 0 0)
(198.56 0 0)
(198.559 0 0)
(198.559 0 0)
(198.558 0 0)
(198.558 0 0)
(198.557 0 0)
(198.557 0 0)
(198.556 0 0)
(198.555 0 0)
(198.555 0 0)
(198.554 0 0)
(198.554 0 0)
(198.553 0 0)
(198.553 0 0)
(198.553 0 0)
(198.552 0 0)
(198.552 0 0)
(198.552 0 0)
(198.551 0 0)
(198.551 0 0)
(198.551 0 0)
(198.55 0 0)
(198.55 0 0)
(198.55 0 0)
(198.549 0 0)
(198.549 0 0)
(198.548 0 0)
(198.548 0 0)
(198.547 0 0)
(198.547 0 0)
(198.547 0 0)
(198.546 0 0)
(198.546 0 0)
(198.546 0 0)
(198.545 0 0)
(198.545 0 0)
(198.545 0 0)
(198.544 0 0)
(198.544 0 0)
(198.544 0 0)
(198.544 0 0)
(198.544 0 0)
(198.543 0 0)
(198.543 0 0)
(198.543 0 0)
(198.543 0 0)
(198.543 0 0)
(198.542 0 0)
(198.542 0 0)
(198.542 0 0)
(198.542 0 0)
(198.541 0 0)
(198.541 0 0)
(198.541 0 0)
(198.541 0 0)
(198.542 0 0)
(198.541 0 0)
(198.541 0 0)
(198.543 0 0)
(198.544 0 0)
(198.546 0 0)
(198.547 0 0)
(198.545 0 0)
(198.542 0 0)
(198.54 0 0)
(198.54 0 0)
(198.539 0 0)
(198.539 0 0)
(198.539 0 0)
(198.538 0 0)
(198.537 0 0)
(198.536 0 0)
(198.534 0 0)
(198.537 0 0)
(198.547 0 0)
(198.567 0 0)
(198.609 0 0)
(198.706 0 0)
(198.856 0 0)
(198.846 0 0)
(198.663 0 0)
(198.546 0 0)
(198.506 0 0)
(198.489 0 0)
(198.473 0 0)
(198.478 0 0)
(198.511 0 0)
(198.535 0 0)
(198.524 0 0)
(198.506 0 0)
(198.522 0 0)
(198.551 0 0)
(198.546 0 0)
(198.516 0 0)
(198.512 0 0)
(198.543 0 0)
(198.559 0 0)
(198.533 0 0)
(198.507 0 0)
(198.526 0 0)
(198.556 0 0)
(198.544 0 0)
(198.508 0 0)
(198.506 0 0)
(198.538 0 0)
(198.548 0 0)
(198.517 0 0)
(198.497 0 0)
(198.524 0 0)
(198.553 0 0)
(198.534 0 0)
(198.499 0 0)
(198.506 0 0)
(198.542 0 0)
(198.548 0 0)
(198.515 0 0)
(198.496 0 0)
(198.523 0 0)
(198.549 0 0)
(198.528 0 0)
(198.496 0 0)
(198.507 0 0)
(198.542 0 0)
(198.541 0 0)
(198.505 0 0)
(198.493 0 0)
(198.525 0 0)
(198.547 0 0)
(198.521 0 0)
(198.49 0 0)
(198.506 0 0)
(198.541 0 0)
(198.535 0 0)
(198.499 0 0)
(198.492 0 0)
(198.524 0 0)
(198.542 0 0)
(198.513 0 0)
(198.486 0 0)
(198.507 0 0)
(198.54 0 0)
(198.527 0 0)
(198.489 0 0)
(198.491 0 0)
(198.529 0 0)
(198.538 0 0)
(198.5 0 0)
(198.479 0 0)
(198.511 0 0)
(198.541 0 0)
(198.517 0 0)
(198.478 0 0)
(198.489 0 0)
(198.529 0 0)
(198.531 0 0)
(198.49 0 0)
(198.473 0 0)
(198.507 0 0)
(198.534 0 0)
(198.506 0 0)
(198.469 0 0)
(198.484 0 0)
(198.523 0 0)
(198.517 0 0)
(198.474 0 0)
(198.464 0 0)
(198.502 0 0)
(198.522 0 0)
(198.485 0 0)
(198.45 0 0)
(198.473 0 0)
(198.511 0 0)
(198.496 0 0)
(198.45 0 0)
(198.444 0 0)
(198.484 0 0)
(198.497 0 0)
(198.455 0 0)
(198.422 0 0)
(198.447 0 0)
(198.481 0 0)
(198.457 0 0)
(198.407 0 0)
(198.405 0 0)
(198.444 0 0)
(198.45 0 0)
(198.4 0 0)
(198.365 0 0)
(198.39 0 0)
(198.418 0 0)
(198.387 0 0)
(198.333 0 0)
(198.328 0 0)
(198.361 0 0)
(198.354 0 0)
(198.296 0 0)
(198.26 0 0)
(198.281 0 0)
(198.298 0 0)
(198.249 0 0)
(198.186 0 0)
(198.178 0 0)
(198.2 0 0)
(198.177 0 0)
(198.107 0 0)
(198.06 0 0)
(198.063 0 0)
(198.06 0 0)
(197.999 0 0)
(197.926 0 0)
(197.896 0 0)
(197.89 0 0)
(197.843 0 0)
(197.755 0 0)
(197.69 0 0)
(197.662 0 0)
(197.621 0 0)
(197.522 0 0)
(197.418 0 0)
(197.354 0 0)
(197.306 0 0)
(197.205 0 0)
(197.058 0 0)
(196.94 0 0)
(196.863 0 0)
(196.763 0 0)
(196.574 0 0)
(196.373 0 0)
(196.234 0 0)
(196.113 0 0)
(195.888 0 0)
(195.577 0 0)
(195.328 0 0)
(195.153 0 0)
(194.898 0 0)
(194.446 0 0)
(194.005 0 0)
(193.683 0 0)
(193.311 0 0)
(192.683 0 0)
(191.883 0 0)
(190.831 0 0)
(188.989 0 0)
(185.471 0 0)
(176.436 0 0)
(143.448 0 0)
(74.6777 0 0)
(22.1174 0 0)
(5.69195 0 0)
(1.37553 0 0)
(0.326722 0 0)
(0.0773084 0 0)
(0.0182776 0 0)
(0.00432075 0 0)
(0.0010213 0 0)
(0.000241387 0 0)
(5.70492e-05 0 0)
(1.34825e-05 0 0)
(3.18621e-06 0 0)
(7.52946e-07 0 0)
(1.77923e-07 0 0)
(4.20363e-08 0 0)
(9.92603e-09 0 0)
(2.33765e-09 0 0)
(5.44262e-10 0 0)
(1.21289e-10 0 0)
(2.3509e-11 0 0)
(-2.6945e-12 0 0)
(-6.04955e-12 0 0)
(-7.62412e-12 0 0)
(-5.29326e-12 0 0)
(-1.0388e-11 0 0)
(-8.10537e-12 0 0)
(-1.06206e-11 0 0)
(-6.51422e-12 0 0)
(-4.831e-12 0 0)
(-2.75309e-12 0 0)
(-2.60976e-12 0 0)
(8.09164e-13 0 0)
(1.45642e-12 0 0)
(-2.57032e-12 0 0)
(-2.49157e-12 0 0)
(-1.15101e-12 0 0)
(1.16393e-12 0 0)
(-5.42482e-12 0 0)
(1.85418e-12 0 0)
(-3.84083e-12 0 0)
(-3.40931e-13 0 0)
(4.20887e-13 0 0)
(2.12725e-12 0 0)
(1.127e-12 0 0)
(5.98475e-12 0 0)
(5.82246e-12 0 0)
(9.11941e-12 0 0)
(6.99247e-12 0 0)
(1.08118e-11 0 0)
(8.91464e-12 0 0)
(9.77838e-12 0 0)
(1.00378e-11 0 0)
(1.30427e-11 0 0)
(1.08366e-11 0 0)
(1.07214e-11 0 0)
(9.92625e-12 0 0)
(1.19977e-11 0 0)
(1.05558e-11 0 0)
(9.83956e-12 0 0)
(1.038e-11 0 0)
(8.45972e-12 0 0)
(8.165e-12 0 0)
(9.65386e-12 0 0)
(7.6996e-12 0 0)
(5.15083e-12 0 0)
(4.66986e-12 0 0)
(4.38125e-12 0 0)
(6.67381e-12 0 0)
(5.57011e-12 0 0)
(6.69771e-12 0 0)
(7.31179e-12 0 0)
(5.94852e-12 0 0)
(5.57488e-12 0 0)
(8.32555e-12 0 0)
(8.0691e-12 0 0)
(7.47989e-12 0 0)
(6.16658e-12 0 0)
(5.41922e-12 0 0)
(3.89231e-12 0 0)
(6.62065e-12 0 0)
(5.31444e-12 0 0)
(5.79433e-12 0 0)
(6.49763e-12 0 0)
(7.05549e-12 0 0)
(6.46115e-12 0 0)
(8.55697e-12 0 0)
(6.49768e-12 0 0)
(9.26623e-12 0 0)
(5.0909e-12 0 0)
(4.63628e-12 0 0)
(2.03482e-12 0 0)
(2.55372e-13 0 0)
(2.58993e-12 0 0)
(1.3115e-12 0 0)
(-1.68888e-13 0 0)
(-3.28521e-12 0 0)
(-8.5677e-13 0 0)
(-3.34192e-12 0 0)
(-1.10876e-12 0 0)
(2.04748e-12 0 0)
(-6.40303e-13 0 0)
(3.62738e-13 0 0)
(3.27038e-12 0 0)
(2.11109e-12 0 0)
(5.624e-13 0 0)
(3.35631e-12 0 0)
(2.04709e-12 0 0)
(2.05022e-14 0 0)
(3.15885e-12 0 0)
(5.51966e-12 0 0)
(4.51388e-12 0 0)
(2.4597e-12 0 0)
(5.14045e-12 0 0)
(1.62672e-12 0 0)
(4.1615e-12 0 0)
(5.12947e-12 0 0)
(7.63324e-12 0 0)
(8.51999e-12 0 0)
(6.93554e-12 0 0)
(1.06858e-11 0 0)
(8.33155e-12 0 0)
(6.2533e-12 0 0)
(6.01347e-12 0 0)
(7.2635e-12 0 0)
(7.58626e-12 0 0)
(8.93969e-12 0 0)
(1.07059e-11 0 0)
(9.48632e-12 0 0)
(8.87023e-12 0 0)
(6.08013e-12 0 0)
(4.81706e-12 0 0)
(5.04466e-12 0 0)
(3.33053e-12 0 0)
(6.72431e-12 0 0)
(7.58714e-12 0 0)
(9.27485e-12 0 0)
(8.95552e-12 0 0)
(1.26149e-11 0 0)
(1.18346e-11 0 0)
(1.08245e-11 0 0)
(9.02659e-12 0 0)
(8.86161e-12 0 0)
(6.31959e-12 0 0)
(5.47534e-12 0 0)
(1.9768e-12 0 0)
(2.58399e-12 0 0)
(3.45318e-12 0 0)
(2.90909e-12 0 0)
(6.56212e-12 0 0)
(9.31272e-12 0 0)
(9.80525e-12 0 0)
(1.32149e-11 0 0)
(1.01543e-11 0 0)
(1.34272e-11 0 0)
(1.53805e-11 0 0)
(1.57428e-11 0 0)
(1.77408e-11 0 0)
(1.82969e-11 0 0)
(2.04437e-11 0 0)
(2.11272e-11 0 0)
(2.36674e-11 0 0)
(2.45586e-11 0 0)
(2.55239e-11 0 0)
(2.42603e-11 0 0)
(2.65311e-11 0 0)
(2.50502e-11 0 0)
(2.50884e-11 0 0)
(2.23597e-11 0 0)
(2.27222e-11 0 0)
(1.93857e-11 0 0)
(2.04196e-11 0 0)
(1.83534e-11 0 0)
(1.85047e-11 0 0)
(1.77258e-11 0 0)
(1.99791e-11 0 0)
(1.9019e-11 0 0)
(1.79132e-11 0 0)
(1.96666e-11 0 0)
(2.13394e-11 0 0)
(2.28584e-11 0 0)
(2.24184e-11 0 0)
(2.15683e-11 0 0)
(2.00882e-11 0 0)
(1.81687e-11 0 0)
(1.84944e-11 0 0)
(1.70215e-11 0 0)
(2.10362e-11 0 0)
(2.13184e-11 0 0)
(2.35337e-11 0 0)
(2.26149e-11 0 0)
(2.55954e-11 0 0)
(2.36998e-11 0 0)
(2.47548e-11 0 0)
(2.50338e-11 0 0)
(2.56826e-11 0 0)
(2.81166e-11 0 0)
(3.11182e-11 0 0)
(2.96606e-11 0 0)
(2.91586e-11 0 0)
(2.85502e-11 0 0)
(2.56723e-11 0 0)
(2.44489e-11 0 0)
(2.42739e-11 0 0)
(2.72245e-11 0 0)
(2.66991e-11 0 0)
(2.66994e-11 0 0)
(2.78146e-11 0 0)
(3.03921e-11 0 0)
(2.99204e-11 0 0)
(3.25818e-11 0 0)
(3.20861e-11 0 0)
(3.36359e-11 0 0)
(3.25556e-11 0 0)
(3.44663e-11 0 0)
(3.32854e-11 0 0)
(3.55219e-11 0 0)
(3.45982e-11 0 0)
(3.77675e-11 0 0)
(3.78048e-11 0 0)
(3.72465e-11 0 0)
(3.74766e-11 0 0)
(3.71206e-11 0 0)
(3.61051e-11 0 0)
(3.69668e-11 0 0)
(3.9022e-11 0 0)
(3.7614e-11 0 0)
(3.58788e-11 0 0)
(3.35718e-11 0 0)
(3.35437e-11 0 0)
(3.17194e-11 0 0)
(3.01604e-11 0 0)
(2.94861e-11 0 0)
(3.16963e-11 0 0)
(2.66119e-11 0 0)
(2.87308e-11 0 0)
(2.64731e-11 0 0)
(2.99553e-11 0 0)
(2.51426e-11 0 0)
(2.76277e-11 0 0)
(2.46019e-11 0 0)
)
;

boundaryField
{
    sides
    {
        type            zeroGradient;
    }
    empty
    {
        type            empty;
    }
}


// ************************************************************************* //
