/*--------------------------------*- C++ -*----------------------------------*\
| =========                 |                                                 |
| \\      /  F ield         | OpenFOAM: The Open Source CFD Toolbox           |
|  \\    /   O peration     | Version:  4.1                                   |
|   \\  /    A nd           | Web:      www.OpenFOAM.org                      |
|    \\/     M anipulation  |                                                 |
\*---------------------------------------------------------------------------*/
FoamFile
{
    version     2.0;
    format      ascii;
    class       volScalarField;
    location    "0.0042";
    object      mag(U);
}
// * * * * * * * * * * * * * * * * * * * * * * * * * * * * * * * * * * * * * //

dimensions      [0 1 -1 0 0 0 0];

internalField   nonuniform List<scalar> 
1000
(
1.47706e-11
1.57477e-11
1.73696e-11
1.70234e-11
1.57898e-11
1.451e-11
1.43719e-11
1.48808e-11
1.28493e-11
1.51662e-11
1.43223e-11
1.57185e-11
1.37233e-11
1.42061e-11
1.07652e-11
1.37304e-11
1.27543e-11
1.3705e-11
7.49462e-12
1.13982e-11
9.65646e-12
9.61192e-12
9.25529e-12
1.02273e-11
7.90896e-12
9.79367e-12
7.88096e-12
1.06951e-11
6.97554e-12
7.85385e-12
1.0325e-11
8.49387e-12
9.5769e-12
5.97315e-12
6.84492e-12
4.72833e-12
8.96613e-12
5.68269e-12
9.07094e-12
3.60446e-12
6.48522e-12
6.24883e-12
1.04487e-11
6.01325e-12
1.06866e-11
7.90077e-12
1.09767e-11
1.11534e-11
1.0791e-11
8.82125e-12
1.11328e-11
8.83808e-12
1.12313e-11
1.10234e-11
1.05296e-11
1.1996e-11
1.07516e-11
1.16953e-11
7.37749e-12
9.87035e-12
7.62449e-12
9.60569e-12
6.81402e-12
8.88551e-12
7.65083e-12
1.19368e-11
1.15599e-11
1.45442e-11
1.12762e-11
1.42762e-11
9.69943e-12
1.16738e-11
9.1576e-12
1.34657e-11
9.21739e-12
1.31283e-11
8.02844e-12
9.37149e-12
8.87549e-12
7.81846e-12
6.72878e-12
7.55149e-12
7.55705e-12
8.87324e-12
9.34517e-12
5.06379e-12
3.95677e-12
1.46042e-12
2.93414e-12
1.304e-12
1.30009e-12
4.8533e-12
3.3331e-12
8.1408e-12
4.45219e-12
8.04527e-12
5.77251e-12
7.43536e-12
6.98043e-12
9.54431e-12
7.24166e-12
8.74797e-12
9.68666e-12
6.55735e-12
9.01059e-12
6.32331e-12
6.70373e-12
7.15675e-12
7.59878e-12
1.00604e-11
1.00872e-11
1.1094e-11
1.22827e-11
1.20144e-11
1.34086e-11
1.42982e-11
1.38769e-11
1.3896e-11
1.29539e-11
1.25671e-11
1.14849e-11
1.24768e-11
1.1898e-11
1.15645e-11
9.49937e-12
1.1315e-11
1.04811e-11
1.29539e-11
1.13497e-11
1.35524e-11
1.0606e-11
1.0238e-11
1.21659e-11
1.14181e-11
1.20214e-11
9.25311e-12
8.53565e-12
8.93808e-12
9.11436e-12
1.03134e-11
1.23764e-11
1.31011e-11
1.21081e-11
1.25564e-11
1.08279e-11
1.10904e-11
1.11375e-11
1.09673e-11
1.15693e-11
8.7333e-12
1.14289e-11
8.98398e-12
1.09021e-11
8.82453e-12
9.5122e-12
7.08478e-12
9.45407e-12
9.6277e-12
8.56884e-12
8.84865e-12
8.63298e-12
7.51632e-12
8.30477e-12
8.7979e-12
7.90904e-12
8.72188e-12
6.39605e-12
6.2955e-12
9.48471e-12
1.09957e-11
1.22879e-11
1.06468e-11
8.67922e-12
1.06163e-11
9.50669e-12
1.03485e-11
7.70716e-12
1.05849e-11
8.27104e-12
1.11645e-11
8.03347e-12
8.92452e-12
7.1714e-12
7.42289e-12
9.04395e-12
1.10159e-11
9.62527e-12
1.08843e-11
9.06027e-12
7.54722e-12
7.41999e-12
5.92082e-12
9.02942e-12
4.59916e-12
8.65211e-12
6.87165e-12
8.45488e-12
4.87153e-12
8.61193e-12
5.53975e-12
1.18658e-11
7.7488e-12
9.46182e-12
6.42989e-12
8.03946e-12
7.81171e-12
8.02529e-12
6.01722e-12
7.23391e-12
8.12015e-12
8.03081e-12
9.56116e-12
9.66614e-12
8.02388e-12
6.9175e-12
1.17514e-11
7.13992e-12
1.07547e-11
3.99993e-12
7.31102e-12
4.11564e-12
8.54376e-12
5.55013e-12
1.10731e-11
6.6717e-12
1.09486e-11
8.94211e-12
1.38557e-11
1.06099e-11
1.2299e-11
1.08058e-11
1.03769e-11
9.29295e-12
8.1053e-12
1.09647e-11
7.47257e-12
8.53257e-12
3.9352e-12
6.47655e-12
3.29137e-12
8.34462e-12
3.75935e-12
4.45455e-12
2.40492e-12
6.97127e-12
5.73881e-12
9.31978e-12
5.75252e-12
9.22848e-12
8.94615e-12
1.02034e-11
7.85287e-12
1.09148e-11
5.35885e-12
6.31271e-12
5.8278e-12
5.48058e-12
4.8427e-12
8.59753e-12
8.60648e-12
7.72003e-12
6.84057e-12
7.88953e-12
5.49649e-12
4.58417e-12
3.48234e-12
3.66111e-12
5.86189e-12
2.52919e-12
5.83717e-12
6.05473e-12
6.14202e-12
5.74576e-12
5.10782e-12
7.20914e-12
8.17634e-12
4.25311e-12
1.04975e-11
6.6117e-12
1.02465e-11
1.06631e-11
1.97397e-11
3.69051e-11
8.06708e-11
1.69736e-10
3.68504e-10
7.93251e-10
1.7018e-09
3.61939e-09
7.6352e-09
1.59599e-08
3.30729e-08
6.79317e-08
1.38301e-07
2.79058e-07
5.57981e-07
1.10545e-06
2.16965e-06
4.21797e-06
8.12093e-06
1.54817e-05
2.92189e-05
5.45825e-05
0.000100901
0.000184544
0.000333856
0.000597265
0.00105635
0.00184655
0.00318927
0.00544075
0.00916452
0.0152363
0.0249914
0.0404248
0.0644531
0.10124
0.156575
0.238285
0.356605
0.524435
0.757332
1.07306
1.49047
2.02737
2.69667
3.50069
4.42968
5.46943
6.60804
7.83583
9.14359
10.5222
11.9629
13.4574
14.9985
16.5795
18.195
19.8402
21.511
23.2041
24.9166
26.6461
28.3906
30.1485
31.9182
33.6985
35.4884
37.2869
39.0931
40.9065
42.7263
44.552
46.3831
48.2192
50.0599
51.9047
53.7534
55.6057
57.4612
59.3198
61.1811
63.045
64.9113
66.7796
68.65
70.5221
72.3959
74.2711
76.1475
78.0251
79.9037
81.7832
83.6633
85.544
87.4251
89.3066
91.1881
93.0696
94.9511
96.8322
98.7129
100.593
102.473
104.351
106.229
108.105
109.98
111.854
113.726
115.596
117.464
119.33
121.193
123.054
124.912
126.767
128.618
130.466
132.309
134.149
135.984
137.814
139.638
141.457
143.27
145.076
146.876
148.667
150.451
152.226
153.991
155.746
157.49
159.223
160.943
162.649
164.341
166.016
167.675
169.315
170.935
172.534
174.108
175.659
177.18
178.674
180.134
181.56
182.949
184.298
185.603
186.861
188.07
189.225
190.322
191.36
192.332
193.238
194.074
194.837
195.526
196.14
196.679
197.145
197.539
197.865
198.127
198.333
198.488
198.597
198.672
198.718
198.741
198.749
198.749
198.75
198.749
198.744
198.734
198.715
198.692
198.668
198.646
198.629
198.615
198.606
198.6
198.596
198.593
198.591
198.59
198.588
198.587
198.586
198.585
198.585
198.584
198.583
198.583
198.582
198.581
198.58
198.579
198.579
198.578
198.577
198.577
198.576
198.576
198.575
198.574
198.573
198.573
198.572
198.572
198.571
198.571
198.57
198.57
198.569
198.569
198.568
198.567
198.567
198.566
198.565
198.564
198.564
198.563
198.563
198.562
198.561
198.561
198.561
198.56
198.558
198.558
198.558
198.558
198.557
198.556
198.556
198.555
198.555
198.554
198.554
198.553
198.553
198.552
198.552
198.551
198.55
198.55
198.549
198.549
198.548
198.547
198.547
198.546
198.546
198.546
198.545
198.545
198.545
198.545
198.545
198.544
198.544
198.544
198.543
198.543
198.543
198.542
198.542
198.541
198.541
198.541
198.541
198.54
198.54
198.539
198.539
198.539
198.539
198.539
198.539
198.539
198.538
198.538
198.537
198.538
198.538
198.538
198.542
198.552
198.567
198.599
198.684
198.851
198.89
198.73
198.578
198.491
198.479
198.495
198.495
198.488
198.506
198.537
198.539
198.513
198.509
198.538
198.553
198.527
198.503
198.524
198.556
198.545
198.507
198.503
198.536
198.549
198.517
198.492
198.516
198.548
198.532
198.496
198.501
198.537
198.543
198.507
198.489
198.52
198.548
198.524
198.488
198.499
198.537
198.538
198.502
198.487
198.519
198.543
198.516
198.483
198.501
198.539
198.533
198.493
198.482
198.517
198.539
198.511
198.478
198.496
198.532
198.523
198.484
198.479
198.517
198.532
198.495
198.465
198.491
198.528
198.512
198.468
198.464
198.502
198.518
198.483
198.45
198.471
198.504
198.488
198.445
198.444
198.481
198.486
198.441
198.414
198.443
198.472
198.44
198.391
198.396
198.434
198.428
198.375
198.346
198.372
198.393
198.353
198.299
198.299
198.328
198.311
198.248
198.215
198.232
198.238
198.182
198.119
198.11
198.122
198.085
198.007
197.961
197.958
197.94
197.862
197.782
197.745
197.724
197.655
197.548
197.467
197.419
197.356
197.228
197.094
197.003
196.93
196.789
196.588
196.425
196.312
196.157
195.88
195.591
195.392
195.218
194.872
194.399
194.035
193.737
193.24
192.494
191.692
190.565
188.394
183.689
170.562
125.75
54.1926
14.8934
3.72354
0.892412
0.211445
0.0499862
0.011811
0.00279045
0.000659204
0.000155719
3.67828e-05
8.6883e-06
2.05216e-06
4.84699e-07
1.14476e-07
2.70321e-08
6.38147e-09
1.50179e-09
3.52244e-10
8.02778e-11
1.54633e-11
2.73757e-12
3.95559e-12
3.80685e-12
6.35046e-12
4.54406e-12
8.84978e-12
6.41681e-12
8.01479e-12
4.41403e-12
5.44446e-12
3.67255e-12
6.07136e-12
4.29842e-12
5.43791e-12
3.91467e-12
3.48786e-12
3.38316e-12
6.67499e-12
4.53486e-12
3.21333e-12
6.31555e-12
6.42639e-12
5.12044e-12
2.39249e-12
4.2566e-12
2.23146e-12
3.72588e-12
1.64566e-12
1.52239e-12
3.42186e-14
1.82831e-12
6.07751e-13
6.93456e-14
4.09942e-12
2.49335e-12
3.95882e-12
1.37998e-12
3.79121e-13
1.53328e-12
6.07938e-13
2.08782e-12
5.92099e-13
6.90603e-13
1.27613e-12
4.40994e-12
4.45665e-12
2.0689e-12
5.62523e-12
2.01728e-12
8.72781e-12
5.00307e-12
8.51078e-12
6.35494e-12
8.70464e-12
8.47025e-12
8.68339e-12
4.56174e-12
5.67327e-12
1.67185e-12
2.47724e-12
2.60424e-12
7.43589e-13
3.6259e-12
1.64454e-12
7.8102e-14
1.33747e-12
2.05524e-12
9.28687e-13
1.16452e-12
1.66766e-13
9.75214e-13
3.89682e-12
4.38984e-12
5.65065e-12
7.26336e-12
8.59755e-12
9.00593e-12
9.79038e-12
9.15982e-12
9.16889e-12
7.19455e-12
9.60403e-12
1.05474e-11
6.78982e-12
7.13149e-12
3.87425e-12
3.94209e-12
5.50634e-12
4.7462e-12
7.35796e-12
2.84537e-12
6.11326e-12
6.24636e-12
5.71291e-12
2.77124e-12
4.4876e-13
2.26105e-12
1.74286e-12
9.60336e-13
6.09805e-12
6.07644e-12
9.09983e-12
5.53316e-12
5.10088e-12
3.29626e-12
1.02736e-12
2.81625e-12
5.02194e-12
4.93251e-12
7.19917e-12
6.85147e-12
6.4529e-12
7.71739e-12
8.22927e-12
7.8301e-12
8.10014e-12
9.94306e-12
8.62377e-12
9.06987e-12
5.81067e-12
5.68248e-12
6.73228e-12
6.48257e-12
2.7276e-12
4.37902e-12
3.17361e-13
2.1515e-12
2.04216e-12
2.87527e-13
5.45603e-12
3.30183e-12
5.59526e-12
5.94398e-12
3.25461e-12
4.68593e-12
3.81256e-12
2.33191e-12
1.0619e-13
1.23196e-12
4.88324e-12
3.61714e-12
7.77111e-13
5.60748e-14
7.42366e-13
5.06183e-13
7.34581e-13
3.7462e-13
3.65319e-12
2.10769e-12
2.05474e-12
1.58067e-12
1.18832e-13
4.21961e-12
3.25887e-12
3.23468e-13
3.90937e-12
2.40499e-12
3.16965e-12
2.66718e-13
3.29246e-12
2.95855e-12
3.32756e-12
4.7874e-12
7.09299e-12
5.51244e-12
1.07897e-11
8.47091e-12
8.24498e-12
1.01423e-11
7.43421e-12
8.16776e-12
7.174e-12
9.79775e-12
1.07179e-11
9.9577e-12
7.12676e-12
1.01176e-11
1.26008e-11
1.38817e-11
1.07861e-11
1.17842e-11
1.01085e-11
1.15116e-11
1.14619e-11
1.32251e-11
1.56076e-11
1.85331e-11
2.04249e-11
2.24003e-11
2.44072e-11
2.54611e-11
2.62183e-11
2.59399e-11
2.53125e-11
2.40708e-11
2.19823e-11
2.35479e-11
2.31088e-11
2.37178e-11
2.08783e-11
1.99627e-11
1.79803e-11
2.32184e-11
2.26538e-11
2.40216e-11
2.42165e-11
2.51688e-11
2.42881e-11
2.463e-11
2.32319e-11
2.49534e-11
2.69751e-11
2.7536e-11
2.8706e-11
2.9161e-11
3.04109e-11
3.00633e-11
3.10062e-11
3.11753e-11
3.11433e-11
2.80461e-11
2.92715e-11
2.64893e-11
2.67067e-11
2.5607e-11
2.82524e-11
2.73064e-11
2.85061e-11
2.48639e-11
2.55173e-11
2.35248e-11
2.31447e-11
2.24741e-11
2.05182e-11
2.00252e-11
2.13454e-11
2.38623e-11
2.45201e-11
2.38723e-11
2.15549e-11
2.29594e-11
2.17187e-11
2.01207e-11
1.91942e-11
2.27803e-11
2.02107e-11
2.4164e-11
2.06573e-11
2.28117e-11
2.02811e-11
2.46741e-11
2.29803e-11
)
;

boundaryField
{
    sides
    {
        type            calculated;
        value           nonuniform List<scalar> 2(2.29803e-11 1.47706e-11);
    }
    empty
    {
        type            empty;
    }
}


// ************************************************************************* //
