/*--------------------------------*- C++ -*----------------------------------*\
| =========                 |                                                 |
| \\      /  F ield         | OpenFOAM: The Open Source CFD Toolbox           |
|  \\    /   O peration     | Version:  4.1                                   |
|   \\  /    A nd           | Web:      www.OpenFOAM.org                      |
|    \\/     M anipulation  |                                                 |
\*---------------------------------------------------------------------------*/
FoamFile
{
    version     2.0;
    format      ascii;
    class       volScalarField;
    location    "0.0042";
    object      p;
}
// * * * * * * * * * * * * * * * * * * * * * * * * * * * * * * * * * * * * * //

dimensions      [1 -1 -2 0 0 0 0];

internalField   nonuniform List<scalar> 
1000
(
100000
100000
100000
100000
100000
100000
100000
100000
100000
100000
100000
100000
100000
100000
100000
100000
100000
100000
100000
100000
100000
100000
100000
100000
100000
100000
100000
100000
100000
100000
100000
100000
100000
100000
100000
100000
100000
100000
100000
100000
100000
100000
100000
100000
100000
100000
100000
100000
100000
100000
100000
100000
100000
100000
100000
100000
100000
100000
100000
100000
100000
100000
100000
100000
100000
100000
100000
100000
100000
100000
100000
100000
100000
100000
100000
100000
100000
100000
100000
100000
100000
100000
100000
100000
100000
100000
100000
100000
100000
100000
100000
100000
100000
100000
100000
100000
100000
100000
100000
100000
100000
100000
100000
100000
100000
100000
100000
100000
100000
100000
100000
100000
100000
100000
100000
100000
100000
100000
100000
100000
100000
100000
100000
100000
100000
100000
100000
100000
100000
100000
100000
100000
100000
100000
100000
100000
100000
100000
100000
100000
100000
100000
100000
100000
100000
100000
100000
100000
100000
100000
100000
100000
100000
100000
100000
100000
100000
100000
100000
100000
100000
100000
100000
100000
100000
100000
100000
100000
100000
100000
100000
100000
100000
100000
100000
100000
100000
100000
100000
100000
100000
100000
100000
100000
100000
100000
100000
100000
100000
100000
100000
100000
100000
100000
100000
100000
100000
100000
100000
100000
100000
100000
100000
100000
100000
100000
100000
100000
100000
100000
100000
100000
100000
100000
100000
100000
100000
100000
100000
100000
100000
100000
100000
100000
100000
100000
100000
100000
100000
100000
100000
100000
100000
100000
100000
100000
100000
100000
100000
100000
100000
100000
100000
100000
100000
100000
100000
100000
100000
100000
100000
100000
100000
100000
100000
100000
100000
100000
100000
100000
100000
100000
100000
100000
100000
100000
100000
100000
100000
100000
100000
100000
100000
100000
100000
100000
100000
100000
100000
100000
100000
100000
100000
100000
100000
100000
100000
100000
100000
100000
100000
100000
100000
100000
100000
100000
100000
100000
100000
100000
100000
100000
100000
100000
99999.9
99999.9
99999.8
99999.6
99999.4
99998.9
99998.1
99996.8
99994.7
99991.4
99986.1
99977.7
99965
99945.9
99917.6
99876.5
99818.3
99737.5
99627.9
99482.9
99296.2
99063.4
98783.4
98460.8
98101.3
97709.3
97288.3
96841.8
96373.2
95885.8
95382.6
94866.2
94339
93803.1
93260.1
92711.6
92158.6
91602.3
91043.5
90482.9
89921
89358.5
88795.7
88233
87670.8
87109.3
86548.7
85989.3
85431.2
84874.6
84319.7
83766.6
83215.4
82666.2
82119.1
81574.1
81031.4
80491.1
79953.1
79417.5
78884.4
78353.9
77825.9
77300.6
76777.9
76257.9
75740.6
75226
74714.3
74205.3
73699.2
73195.9
72695.6
72198.1
71703.5
71211.9
70723.2
70237.6
69754.9
69275.2
68798.6
68325.1
67854.7
67387.3
66923.1
66462
66004.1
65549.5
65098
64649.8
64204.8
63763.2
63324.9
62890
62458.5
62030.4
61605.9
61184.8
60767.4
60353.5
59943.4
59537
59134.5
58735.8
58341.1
57950.4
57563.9
57181.6
56803.6
56430.1
56061.2
55697
55337.8
54983.5
54634.5
54290.9
53952.9
53620.8
53294.9
52975.2
52662.5
52356.5
52058.3
51767.4
51485.2
51211.2
50946.6
50691.3
50446.1
50211.8
49988.4
49776.9
49577.7
49391.2
49218.2
49058.7
48913.4
48782.2
48665.7
48563.1
48474.7
48400
48337.6
48287.4
48248.5
48218.4
48196.9
48182.8
48173.7
48168.9
48167
48167
48167.2
48167.7
48168.5
48169.9
48172.8
48177.2
48181.6
48185.4
48188.6
48191
48192.8
48194.1
48195
48195.6
48195.9
48196.1
48196.2
48196.3
48196.4
48196.6
48196.7
48196.9
48197.1
48197.2
48197.3
48197.4
48197.5
48197.6
48197.7
48197.8
48197.9
48198
48198.1
48198.2
48198.2
48198.3
48198.4
48198.5
48198.6
48198.7
48198.8
48198.9
48199
48199.1
48199.2
48199.3
48199.4
48199.4
48199.5
48199.5
48199.6
48199.6
48199.7
48199.7
48199.8
48199.8
48199.9
48200
48200.1
48199.9
48199.6
48199.9
48200.3
48200.4
48200.5
48200.5
48200.6
48200.7
48200.7
48200.8
48200.9
48200.9
48201
48201.1
48201.1
48201.2
48201.3
48201.4
48201.4
48201.5
48201.5
48201.6
48201.6
48201.7
48201.7
48201.8
48201.8
48201.8
48201.9
48201.9
48201.9
48201.9
48202
48202
48202
48202
48202
48202
48202
48202
48202
48202
48202
48201.9
48202
48202
48201.9
48201.9
48201.9
48201.9
48201.9
48201.8
48201.8
48201.8
48201.6
48201.6
48201.7
48201.6
48201.3
48201.3
48202.2
48204.2
48208.8
48210.9
48197.6
48198.8
48194.7
48192.2
48205.4
48210.4
48204
48195.1
48200.2
48211.1
48207.9
48193.5
48193.6
48209.5
48212.7
48197.4
48190.4
48202.4
48214
48207.2
48191.2
48192.7
48210.8
48213.7
48196.3
48189.2
48203.5
48214.3
48204.9
48190
48194.6
48212.2
48212.1
48193.2
48189
48206.5
48215.1
48201.7
48188.4
48195.9
48212.6
48210.9
48192.2
48189.5
48207.2
48214.3
48199.1
48187.5
48198.4
48214.2
48209.4
48189.9
48189.1
48208.1
48213.9
48198.4
48187.8
48198.2
48213.1
48207.5
48188.5
48189.6
48210.4
48213.8
48193.6
48185.1
48200.8
48214.4
48205.3
48186.4
48188.1
48208.5
48212.1
48193.5
48184.7
48197.8
48211.1
48202.2
48184.2
48187.6
48208
48208.5
48186.1
48180.3
48199
48209.5
48193.4
48177.3
48184.4
48204.4
48201.8
48177.6
48173.3
48192
48201.4
48183.2
48168
48174.7
48193.2
48188.3
48163.6
48160.1
48177.5
48184.8
48162.3
48148.9
48155.1
48171.1
48161.6
48136.9
48133.5
48145.9
48150.8
48124.5
48112.5
48113.5
48124.7
48111.5
48085.6
48080.5
48084
48087
48051.8
48034
48029.9
48036.8
48014
47967.3
47956.1
47957.8
47959
47886.6
47851.4
47841.2
47851.4
47789
47692.4
47666.2
47665
47647.6
47458.9
47364.4
47242.3
47062.5
46605.4
44906.6
38970.2
29385.9
26230.3
25304.1
25072.6
25017.2
25004.1
25001
25000.2
25000.1
25000
25000
25000
25000
25000
25000
25000
25000
25000
25000
25000
25000
25000
25000
25000
25000
25000
25000
25000
25000
25000
25000
25000
25000
25000
25000
25000
25000
25000
25000
25000
25000
25000
25000
25000
25000
25000
25000
25000
25000
25000
25000
25000
25000
25000
25000
25000
25000
25000
25000
25000
25000
25000
25000
25000
25000
25000
25000
25000
25000
25000
25000
25000
25000
25000
25000
25000
25000
25000
25000
25000
25000
25000
25000
25000
25000
25000
25000
25000
25000
25000
25000
25000
25000
25000
25000
25000
25000
25000
25000
25000
25000
25000
25000
25000
25000
25000
25000
25000
25000
25000
25000
25000
25000
25000
25000
25000
25000
25000
25000
25000
25000
25000
25000
25000
25000
25000
25000
25000
25000
25000
25000
25000
25000
25000
25000
25000
25000
25000
25000
25000
25000
25000
25000
25000
25000
25000
25000
25000
25000
25000
25000
25000
25000
25000
25000
25000
25000
25000
25000
25000
25000
25000
25000
25000
25000
25000
25000
25000
25000
25000
25000
25000
25000
25000
25000
25000
25000
25000
25000
25000
25000
25000
25000
25000
25000
25000
25000
25000
25000
25000
25000
25000
25000
25000
25000
25000
25000
25000
25000
25000
25000
25000
25000
25000
25000
25000
25000
25000
25000
25000
25000
25000
25000
25000
25000
25000
25000
25000
25000
25000
25000
25000
25000
25000
25000
25000
25000
25000
25000
25000
25000
25000
25000
25000
25000
25000
25000
25000
25000
25000
25000
25000
25000
25000
25000
25000
25000
25000
25000
25000
25000
25000
25000
25000
25000
25000
25000
25000
25000
25000
25000
25000
25000
25000
25000
25000
25000
25000
25000
25000
25000
25000
25000
)
;

boundaryField
{
    sides
    {
        type            zeroGradient;
    }
    empty
    {
        type            empty;
    }
}


// ************************************************************************* //
