/*--------------------------------*- C++ -*----------------------------------*\
| =========                 |                                                 |
| \\      /  F ield         | OpenFOAM: The Open Source CFD Toolbox           |
|  \\    /   O peration     | Version:  4.1                                   |
|   \\  /    A nd           | Web:      www.OpenFOAM.org                      |
|    \\/     M anipulation  |                                                 |
\*---------------------------------------------------------------------------*/
FoamFile
{
    version     2.0;
    format      ascii;
    class       surfaceScalarField;
    location    "0.0042";
    object      phi;
}
// * * * * * * * * * * * * * * * * * * * * * * * * * * * * * * * * * * * * * //

dimensions      [1 0 -1 0 0 0 0];

internalField   nonuniform List<scalar> 
999
(
-5.41505e-11
-5.64029e-11
-6.14975e-11
-5.51879e-11
-5.41647e-11
-4.93898e-11
-5.02851e-11
-4.97167e-11
-4.71445e-11
-5.25731e-11
-5.18199e-11
-5.15286e-11
-4.89138e-11
-4.30163e-11
-4.14602e-11
-4.77769e-11
-4.54605e-11
-3.8888e-11
-3.06031e-11
-3.88169e-11
-3.1811e-11
-3.41416e-11
-3.40066e-11
-3.00489e-11
-3.20739e-11
-2.9587e-11
-3.35589e-11
-3.04681e-11
-2.46558e-11
-3.26068e-11
-3.24007e-11
-3.27773e-11
-2.70362e-11
-2.17852e-11
-1.94547e-11
-2.46416e-11
-2.49472e-11
-2.62119e-11
-2.18137e-11
-1.67191e-11
-2.29008e-11
-2.94094e-11
-2.78533e-11
-2.8578e-11
-3.33245e-11
-3.13349e-11
-4.0508e-11
-3.65006e-11
-3.47455e-11
-3.42197e-11
-3.5925e-11
-3.35731e-11
-3.92504e-11
-3.7879e-11
-3.90941e-11
-3.96412e-11
-3.99467e-11
-3.19602e-11
-3.00204e-11
-3.03046e-11
-3.01981e-11
-2.70788e-11
-2.91962e-11
-2.78533e-11
-3.29834e-11
-4.19931e-11
-4.64695e-11
-4.41602e-11
-4.43237e-11
-4.24834e-11
-3.75806e-11
-3.46319e-11
-4.06288e-11
-3.87743e-11
-3.78932e-11
-3.67351e-11
-3.11644e-11
-3.06528e-11
-3.06031e-11
-2.39666e-11
-2.58567e-11
-2.53664e-11
-2.83507e-11
-3.30687e-11
-2.41656e-11
-1.64349e-11
-8.67573e-12
-8.25651e-12
-2.65032e-12
-9.9476e-14
7.04148e-12
1.40119e-11
2.00799e-11
2.24318e-11
1.99307e-11
2.57998e-11
2.18705e-11
2.63682e-11
2.80451e-11
2.83435e-11
2.85425e-11
3.28697e-11
2.68727e-11
2.86065e-11
2.58211e-11
2.16147e-11
2.51035e-11
2.56577e-11
3.00773e-11
3.57758e-11
3.56906e-11
4.25118e-11
4.11546e-11
4.28884e-11
4.96456e-11
4.74216e-11
4.8594e-11
4.84732e-11
4.32934e-11
4.26112e-11
3.98046e-11
4.42171e-11
4.04796e-11
3.47455e-11
3.72609e-11
3.87885e-11
4.0778e-11
4.08704e-11
4.47145e-11
4.14673e-11
3.56053e-11
3.88809e-11
4.01599e-11
4.17941e-11
3.64508e-11
3.13776e-11
2.98712e-11
3.28555e-11
3.22302e-11
3.84119e-11
4.50129e-11
4.36131e-11
4.4075e-11
3.91296e-11
4.01741e-11
3.71259e-11
3.88027e-11
3.85683e-11
3.62945e-11
3.33813e-11
3.7673e-11
3.27915e-11
3.53566e-11
3.09655e-11
2.86278e-11
2.81233e-11
3.43192e-11
3.22871e-11
2.93667e-11
3.09797e-11
2.71783e-11
2.86278e-11
2.85993e-11
2.99352e-11
2.82014e-11
2.65317e-11
2.22471e-11
2.7903e-11
3.49729e-11
4.13465e-11
3.99965e-11
3.30829e-11
3.33955e-11
3.64295e-11
3.49729e-11
2.9587e-11
3.29479e-11
3.26139e-11
3.31539e-11
3.53921e-11
2.79741e-11
2.8578e-11
2.47979e-11
2.96225e-11
3.47669e-11
3.5385e-11
3.5044e-11
3.56764e-11
2.94591e-11
2.46487e-11
2.27871e-11
2.80949e-11
2.15081e-11
2.40945e-11
2.79528e-11
2.75406e-11
2.19629e-11
2.25953e-11
2.35403e-11
3.25429e-11
3.42837e-11
2.86207e-11
2.82228e-11
2.41585e-11
2.9182e-11
2.63043e-11
2.54943e-11
2.197e-11
2.69722e-11
2.74483e-11
3.17186e-11
3.24363e-11
3.13705e-11
2.60698e-11
3.24505e-11
3.20668e-11
3.11644e-11
2.6418e-11
1.94547e-11
1.88649e-11
2.38032e-11
2.33769e-11
2.73417e-11
3.23794e-11
3.13634e-11
3.32179e-11
4.11404e-11
4.12399e-11
3.98828e-11
3.98117e-11
3.87956e-11
3.46674e-11
2.77751e-11
3.59321e-11
3.06386e-11
2.84217e-11
2.15579e-11
1.76712e-11
1.63851e-11
2.15223e-11
2.12381e-11
1.34506e-11
1.28537e-11
1.55254e-11
2.13163e-11
2.79101e-11
2.48264e-11
2.49827e-11
3.33173e-11
3.309e-11
3.07168e-11
3.22729e-11
2.87699e-11
1.98526e-11
2.1501e-11
2.0556e-11
1.70388e-11
2.33769e-11
3.02478e-11
2.92033e-11
2.41585e-11
2.67306e-11
2.24816e-11
1.87583e-11
1.30527e-11
1.27329e-11
1.62288e-11
1.43743e-11
1.43316e-11
2.18776e-11
1.97318e-11
2.22045e-11
1.78346e-11
2.20126e-11
2.61906e-11
2.14868e-11
2.52243e-11
3.0937e-11
2.79243e-11
3.62661e-11
4.90843e-11
9.32445e-11
1.94063e-10
4.12435e-10
8.87582e-10
1.91593e-09
4.11901e-09
8.79312e-09
1.86168e-08
3.90654e-08
8.1259e-08
1.67548e-07
3.42427e-07
6.93648e-07
1.3925e-06
2.77001e-06
5.45923e-06
1.06581e-05
2.0609e-05
3.94627e-05
7.48152e-05
0.000140405
0.000260783
0.000479275
0.000871369
0.00156684
0.00278576
0.00489598
0.00850322
0.0145895
0.0247208
0.0413517
0.068259
0.111142
0.17842
0.282254
0.439774
0.674462
1.01753
1.50903
2.19836
3.14348
4.40828
6.05725
8.14609
10.7056
13.7141
17.1095
20.8376
24.8588
29.137
33.6362
38.3218
43.1611
48.1246
53.1865
58.3243
63.5191
68.7547
74.0178
79.2973
84.5836
89.8691
95.1471
100.412
105.66
110.886
116.087
121.26
126.403
131.514
136.59
141.63
146.633
151.598
156.523
161.408
166.251
171.053
175.811
180.527
185.199
189.827
194.411
198.95
203.443
207.892
212.296
216.653
220.965
225.232
229.452
233.626
237.755
241.837
245.873
249.863
253.807
257.705
261.557
265.362
269.122
272.836
276.504
280.126
283.702
287.232
290.716
294.155
297.549
300.896
304.198
307.455
310.667
313.833
316.953
320.029
323.059
326.044
328.984
331.879
334.728
337.532
340.291
343.004
345.672
348.295
350.872
353.403
355.888
358.328
360.72
363.066
365.365
367.617
369.821
371.977
374.084
376.143
378.15
380.11
382.011
383.874
385.66
387.426
389.095
390.748
392.315
393.822
395.309
396.651
398.037
399.255
400.458
401.616
402.606
403.645
404.533
405.325
406.144
406.778
407.369
407.948
408.357
408.742
409.101
409.325
409.523
409.708
409.806
409.865
409.935
409.962
409.964
409.956
409.956
409.959
409.952
409.938
409.925
409.909
409.886
409.864
409.848
409.831
409.819
409.812
409.806
409.801
409.798
409.795
409.79
409.786
409.783
409.781
409.777
409.775
409.773
409.77
409.766
409.763
409.76
409.756
409.753
409.751
409.748
409.744
409.741
409.738
409.734
409.73
409.727
409.723
409.719
409.716
409.714
409.71
409.706
409.703
409.699
409.695
409.69
409.686
409.681
409.676
409.672
409.666
409.66
409.656
409.652
409.645
409.64
409.637
409.633
409.625
409.601
409.595
409.608
409.603
409.595
409.589
409.585
409.578
409.569
409.561
409.556
409.551
409.543
409.532
409.523
409.517
409.511
409.502
409.489
409.476
409.468
409.462
409.454
409.441
409.424
409.408
409.398
409.392
409.385
409.372
409.35
409.327
409.31
409.299
409.292
409.282
409.26
409.225
409.191
409.168
409.153
409.144
409.129
409.093
409.036
408.984
408.944
408.921
408.908
408.894
408.861
408.753
408.615
408.492
408.402
408.352
408.337
408.34
408.437
408.643
408.762
408.797
408.673
407.061
397.882
373.956
350.794
330.891
315.121
302.967
293.671
286.633
281.874
278.954
276.884
275.187
274.213
273.945
273.864
273.553
273.146
273.13
273.516
273.556
273.121
273.015
273.356
273.568
273.379
273.046
273.126
273.536
273.561
273.107
273.028
273.451
273.596
273.293
273.03
273.208
273.584
273.537
273.08
273.031
273.498
273.613
273.252
273.035
273.254
273.59
273.498
273.064
273.061
273.55
273.637
273.182
273.019
273.301
273.598
273.485
273.078
273.08
273.542
273.617
273.153
273.013
273.381
273.636
273.407
273.021
273.103
273.589
273.631
273.103
272.989
273.371
273.615
273.422
273.042
273.085
273.544
273.587
273.079
272.982
273.42
273.62
273.276
272.956
273.128
273.576
273.529
272.984
272.915
273.445
273.601
273.138
272.883
273.077
273.502
273.418
272.886
272.834
273.338
273.484
272.952
272.749
272.959
273.357
273.191
272.689
272.657
273.12
273.243
272.632
272.506
272.664
273.026
272.78
272.335
272.32
272.61
272.749
272.075
271.98
272.037
272.342
272.035
271.476
271.476
271.673
271.907
270.787
270.641
270.732
271.213
270.432
269.408
269.4
269.799
270.111
267.719
267.36
267.598
268.542
266.138
263.937
263.214
262.736
260.739
252.864
220.159
88.0554
28.3134
7.28347
1.75785
0.417159
0.0986187
0.023302
0.00550537
0.00130063
0.000307248
7.25778e-05
1.71436e-05
4.04937e-06
9.56444e-07
2.25899e-07
5.33503e-08
1.25971e-08
2.97181e-09
6.98702e-10
1.62887e-10
3.59464e-11
6.70219e-12
-8.36664e-13
-3.49054e-12
-4.45333e-12
-4.58122e-12
-6.1231e-12
-6.16573e-12
-6.76259e-12
-5.1017e-12
-4.20997e-12
-3.86358e-12
-4.52438e-12
-4.57767e-12
-3.99503e-12
-4.21707e-12
-2.94165e-12
-3.27205e-12
-4.13181e-12
-5.14611e-12
-3.41593e-12
-3.90976e-12
-5.32197e-12
-5.36637e-12
-3.2454e-12
-2.70006e-12
-2.92566e-12
-2.78177e-12
-2.16005e-12
-1.41043e-12
-8.27782e-13
-5.8975e-13
-1.30385e-12
-2.14939e-13
1.85807e-12
2.9452e-12
2.51532e-12
1.37135e-12
-5.18696e-13
-4.93827e-13
-9.92983e-13
-1.21325e-12
-7.69163e-13
7.69163e-13
-3.87246e-13
-2.37499e-12
-4.1176e-12
-2.72671e-12
-3.11218e-12
-3.57581e-12
-4.53149e-12
-5.94547e-12
-5.99165e-12
-6.59739e-12
-6.27942e-12
-7.74314e-12
-7.1072e-12
-6.14442e-12
-4.13891e-12
-3.54206e-12
-1.55609e-12
4.44089e-14
1.33404e-12
2.11386e-12
8.2423e-13
-7.53175e-13
-7.44294e-13
-1.28075e-12
-1.54543e-12
-7.42517e-13
-6.59028e-13
2.93099e-13
2.30749e-12
3.7339e-12
4.05898e-12
5.38769e-12
7.24931e-12
7.60458e-12
8.44658e-12
7.88347e-12
8.21387e-12
7.14806e-12
6.99174e-12
9.11093e-12
7.56373e-12
5.84777e-12
5.12479e-12
3.05e-12
4.48885e-12
4.17266e-12
5.5298e-12
4.24372e-12
3.86713e-12
5.18519e-12
5.51204e-12
3.55094e-12
1.44595e-12
1.07647e-12
1.7284e-12
1.19726e-12
3.14238e-12
5.08926e-12
6.89937e-12
6.38423e-12
4.43556e-12
3.92042e-12
1.79412e-12
1.50635e-12
3.54206e-12
4.32898e-12
5.62572e-12
5.69678e-12
6.00231e-12
6.37712e-12
6.55653e-12
7.34346e-12
6.47304e-12
8.25651e-12
8.20499e-12
7.53886e-12
6.64357e-12
4.71267e-12
5.70743e-12
5.60973e-12
4.26148e-12
2.71783e-12
2.36611e-12
1.16351e-12
1.59694e-12
1.15818e-12
2.64677e-12
3.32356e-12
4.48708e-12
4.53149e-12
3.91864e-12
3.66107e-12
3.5385e-12
2.92744e-12
8.5798e-13
5.9508e-13
2.36255e-12
4.08207e-12
1.69642e-12
4.26326e-13
-2.45137e-13
-1.74083e-13
7.01661e-13
1.01252e-13
1.56142e-12
2.74625e-12
1.53122e-12
1.92024e-12
4.68958e-13
2.0286e-12
3.44436e-12
1.38733e-12
1.95577e-12
2.64322e-12
2.58993e-12
1.30562e-12
1.20792e-12
2.85105e-12
2.68052e-12
3.63265e-12
5.04841e-12
5.30953e-12
7.25819e-12
8.3098e-12
7.56728e-12
7.63833e-12
7.97762e-12
6.74483e-12
6.31317e-12
7.55307e-12
9.03988e-12
9.05054e-12
7.2955e-12
7.31859e-12
1.00631e-11
1.15925e-11
1.06386e-11
9.93694e-12
9.30278e-12
9.47686e-12
1.00773e-11
1.04396e-11
1.29443e-11
1.4607e-11
1.67208e-11
1.88365e-11
2.02682e-11
2.19949e-11
2.24798e-11
2.22542e-11
2.24976e-11
2.14442e-11
2.01421e-11
1.95151e-11
2.0508e-11
1.99716e-11
1.98117e-11
1.77138e-11
1.59126e-11
1.82681e-11
2.00764e-11
2.04921e-11
2.08988e-11
2.15081e-11
2.11866e-11
2.17462e-11
2.05347e-11
2.05382e-11
2.31317e-11
2.35527e-11
2.39595e-11
2.54818e-11
2.59117e-11
2.65903e-11
2.64162e-11
2.69065e-11
2.68834e-11
2.59046e-11
2.4734e-11
2.44178e-11
2.33182e-11
2.23164e-11
2.3153e-11
2.44817e-11
2.48619e-11
2.24301e-11
2.22435e-11
2.1199e-11
2.05898e-11
1.95932e-11
1.8975e-11
1.75007e-11
1.7474e-11
1.95577e-11
2.14833e-11
2.11511e-11
1.9563e-11
1.95364e-11
1.97957e-11
1.79625e-11
1.68203e-11
1.87352e-11
1.80922e-11
1.94635e-11
1.97122e-11
1.86358e-11
1.90958e-11
1.94298e-11
2.08598e-11
)
;

boundaryField
{
    sides
    {
        type            calculated;
        value           nonuniform List<scalar> 2(1.99749e-11 5.1364e-11);
    }
    empty
    {
        type            empty;
        value           nonuniform 0();
    }
}


// ************************************************************************* //
