/*--------------------------------*- C++ -*----------------------------------*\
| =========                 |                                                 |
| \\      /  F ield         | OpenFOAM: The Open Source CFD Toolbox           |
|  \\    /   O peration     | Version:  4.1                                   |
|   \\  /    A nd           | Web:      www.OpenFOAM.org                      |
|    \\/     M anipulation  |                                                 |
\*---------------------------------------------------------------------------*/
FoamFile
{
    version     2.0;
    format      ascii;
    class       volScalarField;
    location    "0.0042";
    object      T;
}
// * * * * * * * * * * * * * * * * * * * * * * * * * * * * * * * * * * * * * //

dimensions      [0 0 0 1 0 0 0];

internalField   nonuniform List<scalar> 
1000
(
400
400
400
400
400
400
400
400
400
400
400
400
400
400
400
400
400
400
400
400
400
400
400
400
400
400
400
400
400
400
400
400
400
400
400
400
400
400
400
400
400
400
400
400
400
400
400
400
400
400
400
400
400
400
400
400
400
400
400
400
400
400
400
400
400
400
400
400
400
400
400
400
400
400
400
400
400
400
400
400
400
400
400
400
400
400
400
400
400
400
400
400
400
400
400
400
400
400
400
400
400
400
400
400
400
400
400
400
400
400
400
400
400
400
400
400
400
400
400
400
400
400
400
400
400
400
400
400
400
400
400
400
400
400
400
400
400
400
400
400
400
400
400
400
400
400
400
400
400
400
400
400
400
400
400
400
400
400
400
400
400
400
400
400
400
400
400
400
400
400
400
400
400
400
400
400
400
400
400
400
400
400
400
400
400
400
400
400
400
400
400
400
400
400
400
400
400
400
400
400
400
400
400
400
400
400
400
400
400
400
400
400
400
400
400
400
400
400
400
400
400
400
400
400
400
400
400
400
400
400
400
400
400
400
400
400
400
400
400
400
400
400
400
400
400
400
400
400
400
400
400
400
400
400
400
400
400
400
400
400
400
400
400
400
400
400
400
400
400
400
400
400
400
400
400
400
400
400
400
400
400
400
400
400
400
400
400
400
400
400
400
400
400
400
400
400
400
400
400
400
400
400
400
400
400
400
400
400
399.999
399.999
399.998
399.996
399.994
399.99
399.984
399.975
399.96
399.938
399.906
399.859
399.792
399.699
399.573
399.407
399.192
398.924
398.601
398.228
397.811
397.356
396.865
396.343
395.793
395.22
394.625
394.012
393.385
392.744
392.092
391.431
390.761
390.085
389.403
388.715
388.023
387.327
386.627
385.925
385.219
384.512
383.802
383.091
382.378
381.663
380.948
380.231
379.514
378.795
378.076
377.357
376.637
375.916
375.196
374.475
373.754
373.033
372.312
371.591
370.871
370.15
369.43
368.71
367.991
367.272
366.553
365.835
365.118
364.401
363.685
362.97
362.255
361.542
360.829
360.117
359.407
358.697
357.989
357.281
356.575
355.871
355.167
354.465
353.765
353.066
352.369
351.674
350.981
350.289
349.6
348.913
348.228
347.545
346.865
346.187
345.513
344.841
344.172
343.507
342.845
342.187
341.532
340.882
340.236
339.594
338.958
338.327
337.702
337.082
336.47
335.861
335.268
334.665
334.105
333.492
332.993
332.343
331.935
331.238
330.904
330.234
329.863
329.359
328.841
328.543
327.974
327.678
327.311
326.861
326.667
326.295
325.994
325.847
325.544
325.357
325.258
325.053
324.944
324.896
324.788
324.727
324.716
324.685
324.656
324.656
324.66
324.659
324.657
324.659
324.665
324.67
324.675
324.684
324.697
324.703
324.709
324.718
324.721
324.724
324.728
324.731
324.732
324.734
324.736
324.738
324.739
324.741
324.744
324.745
324.747
324.749
324.751
324.752
324.755
324.757
324.759
324.76
324.763
324.766
324.767
324.769
324.772
324.774
324.776
324.779
324.782
324.784
324.786
324.79
324.792
324.794
324.797
324.8
324.803
324.806
324.809
324.812
324.815
324.819
324.822
324.824
324.828
324.833
324.836
324.838
324.842
324.848
324.851
324.853
324.858
324.864
324.87
324.872
324.876
324.882
324.889
324.894
324.897
324.901
324.909
324.917
324.922
324.925
324.931
324.94
324.95
324.958
324.963
324.966
324.973
324.986
325
325.01
325.016
325.02
325.026
325.041
325.06
325.077
325.087
325.093
325.098
325.108
325.133
325.161
325.185
325.199
325.205
325.213
325.23
325.27
325.315
325.352
325.376
325.387
325.396
325.411
325.462
325.57
325.679
325.766
325.82
325.842
325.844
325.811
325.679
325.54
325.467
325.475
325.992
329.769
344.308
367.771
391.095
412.733
431.658
447.252
459.428
468.491
474.988
479.464
482.386
484.202
485.341
486.064
486.461
486.628
486.715
486.805
486.866
486.859
486.804
486.798
486.848
486.855
486.8
486.77
486.803
486.837
486.812
486.759
486.764
486.817
486.82
486.76
486.74
486.787
486.815
486.778
486.731
486.744
486.797
486.795
486.734
486.719
486.767
486.791
486.749
486.707
486.731
486.782
486.773
486.709
486.699
486.754
486.774
486.729
486.69
486.713
486.762
486.751
486.688
486.684
486.747
486.761
486.701
486.669
486.709
486.754
486.733
486.669
486.668
486.73
486.745
486.69
486.658
486.69
486.734
486.714
486.654
486.657
486.721
486.728
486.659
486.634
486.685
486.722
486.68
486.625
486.638
486.702
486.701
486.624
486.605
486.656
486.69
486.641
486.59
486.603
486.663
486.656
486.576
486.56
486.608
486.636
486.573
486.528
486.541
486.592
486.572
486.491
486.479
486.515
486.538
486.461
486.418
486.417
486.452
486.422
486.335
486.322
486.332
486.348
486.245
486.187
486.169
486.185
486.143
485.998
485.955
485.95
485.982
485.767
485.632
485.611
485.666
485.493
485.163
485.121
485.132
485.059
484.485
484.241
483.809
483.215
481.974
477.425
460.109
419.846
405.634
401.393
400.332
400.079
400.019
400.004
400.001
400
400
400
400
400
400
400
400
400
400
400
400
400
400
400
400
400
400
400
400
400
400
400
400
400
400
400
400
400
400
400
400
400
400
400
400
400
400
400
400
400
400
400
400
400
400
400
400
400
400
400
400
400
400
400
400
400
400
400
400
400
400
400
400
400
400
400
400
400
400
400
400
400
400
400
400
400
400
400
400
400
400
400
400
400
400
400
400
400
400
400
400
400
400
400
400
400
400
400
400
400
400
400
400
400
400
400
400
400
400
400
400
400
400
400
400
400
400
400
400
400
400
400
400
400
400
400
400
400
400
400
400
400
400
400
400
400
400
400
400
400
400
400
400
400
400
400
400
400
400
400
400
400
400
400
400
400
400
400
400
400
400
400
400
400
400
400
400
400
400
400
400
400
400
400
400
400
400
400
400
400
400
400
400
400
400
400
400
400
400
400
400
400
400
400
400
400
400
400
400
400
400
400
400
400
400
400
400
400
400
400
400
400
400
400
400
400
400
400
400
400
400
400
400
400
400
400
400
400
400
400
400
400
400
400
400
400
400
400
400
400
400
400
400
400
400
400
400
400
400
400
400
400
400
400
400
400
400
400
400
400
400
400
400
400
)
;

boundaryField
{
    sides
    {
        type            zeroGradient;
    }
    empty
    {
        type            empty;
    }
}


// ************************************************************************* //
