/*--------------------------------*- C++ -*----------------------------------*\
| =========                 |                                                 |
| \\      /  F ield         | OpenFOAM: The Open Source CFD Toolbox           |
|  \\    /   O peration     | Version:  4.1                                   |
|   \\  /    A nd           | Web:      www.OpenFOAM.org                      |
|    \\/     M anipulation  |                                                 |
\*---------------------------------------------------------------------------*/
FoamFile
{
    version     2.0;
    format      ascii;
    class       volVectorField;
    location    "0.0042";
    object      U;
}
// * * * * * * * * * * * * * * * * * * * * * * * * * * * * * * * * * * * * * //

dimensions      [0 1 -1 0 0 0 0];

internalField   nonuniform List<vector> 
1000
(
(-1.47706e-11 0 0)
(-1.57477e-11 0 0)
(-1.73696e-11 0 0)
(-1.70234e-11 0 0)
(-1.57898e-11 0 0)
(-1.451e-11 0 0)
(-1.43719e-11 0 0)
(-1.48808e-11 0 0)
(-1.28493e-11 0 0)
(-1.51662e-11 0 0)
(-1.43223e-11 0 0)
(-1.57185e-11 0 0)
(-1.37233e-11 0 0)
(-1.42061e-11 0 0)
(-1.07652e-11 0 0)
(-1.37304e-11 0 0)
(-1.27543e-11 0 0)
(-1.3705e-11 0 0)
(-7.49462e-12 0 0)
(-1.13982e-11 0 0)
(-9.65646e-12 0 0)
(-9.61192e-12 0 0)
(-9.25529e-12 0 0)
(-1.02273e-11 0 0)
(-7.90896e-12 0 0)
(-9.79367e-12 0 0)
(-7.88096e-12 0 0)
(-1.06951e-11 0 0)
(-6.97554e-12 0 0)
(-7.85385e-12 0 0)
(-1.0325e-11 0 0)
(-8.49387e-12 0 0)
(-9.5769e-12 0 0)
(-5.97315e-12 0 0)
(-6.84492e-12 0 0)
(-4.72833e-12 0 0)
(-8.96613e-12 0 0)
(-5.68269e-12 0 0)
(-9.07094e-12 0 0)
(-3.60446e-12 0 0)
(-6.48522e-12 0 0)
(-6.24883e-12 0 0)
(-1.04487e-11 0 0)
(-6.01325e-12 0 0)
(-1.06866e-11 0 0)
(-7.90077e-12 0 0)
(-1.09767e-11 0 0)
(-1.11534e-11 0 0)
(-1.0791e-11 0 0)
(-8.82125e-12 0 0)
(-1.11328e-11 0 0)
(-8.83808e-12 0 0)
(-1.12313e-11 0 0)
(-1.10234e-11 0 0)
(-1.05296e-11 0 0)
(-1.1996e-11 0 0)
(-1.07516e-11 0 0)
(-1.16953e-11 0 0)
(-7.37749e-12 0 0)
(-9.87035e-12 0 0)
(-7.62449e-12 0 0)
(-9.60569e-12 0 0)
(-6.81402e-12 0 0)
(-8.88551e-12 0 0)
(-7.65083e-12 0 0)
(-1.19368e-11 0 0)
(-1.15599e-11 0 0)
(-1.45442e-11 0 0)
(-1.12762e-11 0 0)
(-1.42762e-11 0 0)
(-9.69943e-12 0 0)
(-1.16738e-11 0 0)
(-9.1576e-12 0 0)
(-1.34657e-11 0 0)
(-9.21739e-12 0 0)
(-1.31283e-11 0 0)
(-8.02844e-12 0 0)
(-9.37149e-12 0 0)
(-8.87549e-12 0 0)
(-7.81846e-12 0 0)
(-6.72878e-12 0 0)
(-7.55149e-12 0 0)
(-7.55705e-12 0 0)
(-8.87324e-12 0 0)
(-9.34517e-12 0 0)
(-5.06379e-12 0 0)
(-3.95677e-12 0 0)
(-1.46042e-12 0 0)
(-2.93414e-12 0 0)
(1.304e-12 0 0)
(-1.30009e-12 0 0)
(4.8533e-12 0 0)
(3.3331e-12 0 0)
(8.1408e-12 0 0)
(4.45219e-12 0 0)
(8.04527e-12 0 0)
(5.77251e-12 0 0)
(7.43536e-12 0 0)
(6.98043e-12 0 0)
(9.54431e-12 0 0)
(7.24166e-12 0 0)
(8.74797e-12 0 0)
(9.68666e-12 0 0)
(6.55735e-12 0 0)
(9.01059e-12 0 0)
(6.32331e-12 0 0)
(6.70373e-12 0 0)
(7.15675e-12 0 0)
(7.59878e-12 0 0)
(1.00604e-11 0 0)
(1.00872e-11 0 0)
(1.1094e-11 0 0)
(1.22827e-11 0 0)
(1.20144e-11 0 0)
(1.34086e-11 0 0)
(1.42982e-11 0 0)
(1.38769e-11 0 0)
(1.3896e-11 0 0)
(1.29539e-11 0 0)
(1.25671e-11 0 0)
(1.14849e-11 0 0)
(1.24768e-11 0 0)
(1.1898e-11 0 0)
(1.15645e-11 0 0)
(9.49937e-12 0 0)
(1.1315e-11 0 0)
(1.04811e-11 0 0)
(1.29539e-11 0 0)
(1.13497e-11 0 0)
(1.35524e-11 0 0)
(1.0606e-11 0 0)
(1.0238e-11 0 0)
(1.21659e-11 0 0)
(1.14181e-11 0 0)
(1.20214e-11 0 0)
(9.25311e-12 0 0)
(8.53565e-12 0 0)
(8.93808e-12 0 0)
(9.11436e-12 0 0)
(1.03134e-11 0 0)
(1.23764e-11 0 0)
(1.31011e-11 0 0)
(1.21081e-11 0 0)
(1.25564e-11 0 0)
(1.08279e-11 0 0)
(1.10904e-11 0 0)
(1.11375e-11 0 0)
(1.09673e-11 0 0)
(1.15693e-11 0 0)
(8.7333e-12 0 0)
(1.14289e-11 0 0)
(8.98398e-12 0 0)
(1.09021e-11 0 0)
(8.82453e-12 0 0)
(9.5122e-12 0 0)
(7.08478e-12 0 0)
(9.45407e-12 0 0)
(9.6277e-12 0 0)
(8.56884e-12 0 0)
(8.84865e-12 0 0)
(8.63298e-12 0 0)
(7.51632e-12 0 0)
(8.30477e-12 0 0)
(8.7979e-12 0 0)
(7.90904e-12 0 0)
(8.72188e-12 0 0)
(6.39605e-12 0 0)
(6.2955e-12 0 0)
(9.48471e-12 0 0)
(1.09957e-11 0 0)
(1.22879e-11 0 0)
(1.06468e-11 0 0)
(8.67922e-12 0 0)
(1.06163e-11 0 0)
(9.50669e-12 0 0)
(1.03485e-11 0 0)
(7.70716e-12 0 0)
(1.05849e-11 0 0)
(8.27104e-12 0 0)
(1.11645e-11 0 0)
(8.03347e-12 0 0)
(8.92452e-12 0 0)
(7.1714e-12 0 0)
(7.42289e-12 0 0)
(9.04395e-12 0 0)
(1.10159e-11 0 0)
(9.62527e-12 0 0)
(1.08843e-11 0 0)
(9.06027e-12 0 0)
(7.54722e-12 0 0)
(7.41999e-12 0 0)
(5.92082e-12 0 0)
(9.02942e-12 0 0)
(4.59916e-12 0 0)
(8.65211e-12 0 0)
(6.87165e-12 0 0)
(8.45488e-12 0 0)
(4.87153e-12 0 0)
(8.61193e-12 0 0)
(5.53975e-12 0 0)
(1.18658e-11 0 0)
(7.7488e-12 0 0)
(9.46182e-12 0 0)
(6.42989e-12 0 0)
(8.03946e-12 0 0)
(7.81171e-12 0 0)
(8.02529e-12 0 0)
(6.01722e-12 0 0)
(7.23391e-12 0 0)
(8.12015e-12 0 0)
(8.03081e-12 0 0)
(9.56116e-12 0 0)
(9.66614e-12 0 0)
(8.02388e-12 0 0)
(6.9175e-12 0 0)
(1.17514e-11 0 0)
(7.13992e-12 0 0)
(1.07547e-11 0 0)
(3.99993e-12 0 0)
(7.31102e-12 0 0)
(4.11564e-12 0 0)
(8.54376e-12 0 0)
(5.55013e-12 0 0)
(1.10731e-11 0 0)
(6.6717e-12 0 0)
(1.09486e-11 0 0)
(8.94211e-12 0 0)
(1.38557e-11 0 0)
(1.06099e-11 0 0)
(1.2299e-11 0 0)
(1.08058e-11 0 0)
(1.03769e-11 0 0)
(9.29295e-12 0 0)
(8.1053e-12 0 0)
(1.09647e-11 0 0)
(7.47257e-12 0 0)
(8.53257e-12 0 0)
(3.9352e-12 0 0)
(6.47655e-12 0 0)
(3.29137e-12 0 0)
(8.34462e-12 0 0)
(3.75935e-12 0 0)
(4.45455e-12 0 0)
(2.40492e-12 0 0)
(6.97127e-12 0 0)
(5.73881e-12 0 0)
(9.31978e-12 0 0)
(5.75252e-12 0 0)
(9.22848e-12 0 0)
(8.94615e-12 0 0)
(1.02034e-11 0 0)
(7.85287e-12 0 0)
(1.09148e-11 0 0)
(5.35885e-12 0 0)
(6.31271e-12 0 0)
(5.8278e-12 0 0)
(5.48058e-12 0 0)
(4.8427e-12 0 0)
(8.59753e-12 0 0)
(8.60648e-12 0 0)
(7.72003e-12 0 0)
(6.84057e-12 0 0)
(7.88953e-12 0 0)
(5.49649e-12 0 0)
(4.58417e-12 0 0)
(3.48234e-12 0 0)
(3.66111e-12 0 0)
(5.86189e-12 0 0)
(2.52919e-12 0 0)
(5.83717e-12 0 0)
(6.05473e-12 0 0)
(6.14202e-12 0 0)
(5.74576e-12 0 0)
(5.10782e-12 0 0)
(7.20914e-12 0 0)
(8.17634e-12 0 0)
(4.25311e-12 0 0)
(1.04975e-11 0 0)
(6.6117e-12 0 0)
(1.02465e-11 0 0)
(1.06631e-11 0 0)
(1.97397e-11 0 0)
(3.69051e-11 0 0)
(8.06708e-11 0 0)
(1.69736e-10 0 0)
(3.68504e-10 0 0)
(7.93251e-10 0 0)
(1.7018e-09 0 0)
(3.61939e-09 0 0)
(7.6352e-09 0 0)
(1.59599e-08 0 0)
(3.30729e-08 0 0)
(6.79317e-08 0 0)
(1.38301e-07 0 0)
(2.79058e-07 0 0)
(5.57981e-07 0 0)
(1.10545e-06 0 0)
(2.16965e-06 0 0)
(4.21797e-06 0 0)
(8.12093e-06 0 0)
(1.54817e-05 0 0)
(2.92189e-05 0 0)
(5.45825e-05 0 0)
(0.000100901 0 0)
(0.000184544 0 0)
(0.000333856 0 0)
(0.000597265 0 0)
(0.00105635 0 0)
(0.00184655 0 0)
(0.00318927 0 0)
(0.00544075 0 0)
(0.00916452 0 0)
(0.0152363 0 0)
(0.0249914 0 0)
(0.0404248 0 0)
(0.0644531 0 0)
(0.10124 0 0)
(0.156575 0 0)
(0.238285 0 0)
(0.356605 0 0)
(0.524435 0 0)
(0.757332 0 0)
(1.07306 0 0)
(1.49047 0 0)
(2.02737 0 0)
(2.69667 0 0)
(3.50069 0 0)
(4.42968 0 0)
(5.46943 0 0)
(6.60804 0 0)
(7.83583 0 0)
(9.14359 0 0)
(10.5222 0 0)
(11.9629 0 0)
(13.4574 0 0)
(14.9985 0 0)
(16.5795 0 0)
(18.195 0 0)
(19.8402 0 0)
(21.511 0 0)
(23.2041 0 0)
(24.9166 0 0)
(26.6461 0 0)
(28.3906 0 0)
(30.1485 0 0)
(31.9182 0 0)
(33.6985 0 0)
(35.4884 0 0)
(37.2869 0 0)
(39.0931 0 0)
(40.9065 0 0)
(42.7263 0 0)
(44.552 0 0)
(46.3831 0 0)
(48.2192 0 0)
(50.0599 0 0)
(51.9047 0 0)
(53.7534 0 0)
(55.6057 0 0)
(57.4612 0 0)
(59.3198 0 0)
(61.1811 0 0)
(63.045 0 0)
(64.9113 0 0)
(66.7796 0 0)
(68.65 0 0)
(70.5221 0 0)
(72.3959 0 0)
(74.2711 0 0)
(76.1475 0 0)
(78.0251 0 0)
(79.9037 0 0)
(81.7832 0 0)
(83.6633 0 0)
(85.544 0 0)
(87.4251 0 0)
(89.3066 0 0)
(91.1881 0 0)
(93.0696 0 0)
(94.9511 0 0)
(96.8322 0 0)
(98.7129 0 0)
(100.593 0 0)
(102.473 0 0)
(104.351 0 0)
(106.229 0 0)
(108.105 0 0)
(109.98 0 0)
(111.854 0 0)
(113.726 0 0)
(115.596 0 0)
(117.464 0 0)
(119.33 0 0)
(121.193 0 0)
(123.054 0 0)
(124.912 0 0)
(126.767 0 0)
(128.618 0 0)
(130.466 0 0)
(132.309 0 0)
(134.149 0 0)
(135.984 0 0)
(137.814 0 0)
(139.638 0 0)
(141.457 0 0)
(143.27 0 0)
(145.076 0 0)
(146.876 0 0)
(148.667 0 0)
(150.451 0 0)
(152.226 0 0)
(153.991 0 0)
(155.746 0 0)
(157.49 0 0)
(159.223 0 0)
(160.943 0 0)
(162.649 0 0)
(164.341 0 0)
(166.016 0 0)
(167.675 0 0)
(169.315 0 0)
(170.935 0 0)
(172.534 0 0)
(174.108 0 0)
(175.659 0 0)
(177.18 0 0)
(178.674 0 0)
(180.134 0 0)
(181.56 0 0)
(182.949 0 0)
(184.298 0 0)
(185.603 0 0)
(186.861 0 0)
(188.07 0 0)
(189.225 0 0)
(190.322 0 0)
(191.36 0 0)
(192.332 0 0)
(193.238 0 0)
(194.074 0 0)
(194.837 0 0)
(195.526 0 0)
(196.14 0 0)
(196.679 0 0)
(197.145 0 0)
(197.539 0 0)
(197.865 0 0)
(198.127 0 0)
(198.333 0 0)
(198.488 0 0)
(198.597 0 0)
(198.672 0 0)
(198.718 0 0)
(198.741 0 0)
(198.749 0 0)
(198.749 0 0)
(198.75 0 0)
(198.749 0 0)
(198.744 0 0)
(198.734 0 0)
(198.715 0 0)
(198.692 0 0)
(198.668 0 0)
(198.646 0 0)
(198.629 0 0)
(198.615 0 0)
(198.606 0 0)
(198.6 0 0)
(198.596 0 0)
(198.593 0 0)
(198.591 0 0)
(198.59 0 0)
(198.588 0 0)
(198.587 0 0)
(198.586 0 0)
(198.585 0 0)
(198.585 0 0)
(198.584 0 0)
(198.583 0 0)
(198.583 0 0)
(198.582 0 0)
(198.581 0 0)
(198.58 0 0)
(198.579 0 0)
(198.579 0 0)
(198.578 0 0)
(198.577 0 0)
(198.577 0 0)
(198.576 0 0)
(198.576 0 0)
(198.575 0 0)
(198.574 0 0)
(198.573 0 0)
(198.573 0 0)
(198.572 0 0)
(198.572 0 0)
(198.571 0 0)
(198.571 0 0)
(198.57 0 0)
(198.57 0 0)
(198.569 0 0)
(198.569 0 0)
(198.568 0 0)
(198.567 0 0)
(198.567 0 0)
(198.566 0 0)
(198.565 0 0)
(198.564 0 0)
(198.564 0 0)
(198.563 0 0)
(198.563 0 0)
(198.562 0 0)
(198.561 0 0)
(198.561 0 0)
(198.561 0 0)
(198.56 0 0)
(198.558 0 0)
(198.558 0 0)
(198.558 0 0)
(198.558 0 0)
(198.557 0 0)
(198.556 0 0)
(198.556 0 0)
(198.555 0 0)
(198.555 0 0)
(198.554 0 0)
(198.554 0 0)
(198.553 0 0)
(198.553 0 0)
(198.552 0 0)
(198.552 0 0)
(198.551 0 0)
(198.55 0 0)
(198.55 0 0)
(198.549 0 0)
(198.549 0 0)
(198.548 0 0)
(198.547 0 0)
(198.547 0 0)
(198.546 0 0)
(198.546 0 0)
(198.546 0 0)
(198.545 0 0)
(198.545 0 0)
(198.545 0 0)
(198.545 0 0)
(198.545 0 0)
(198.544 0 0)
(198.544 0 0)
(198.544 0 0)
(198.543 0 0)
(198.543 0 0)
(198.543 0 0)
(198.542 0 0)
(198.542 0 0)
(198.541 0 0)
(198.541 0 0)
(198.541 0 0)
(198.541 0 0)
(198.54 0 0)
(198.54 0 0)
(198.539 0 0)
(198.539 0 0)
(198.539 0 0)
(198.539 0 0)
(198.539 0 0)
(198.539 0 0)
(198.539 0 0)
(198.538 0 0)
(198.538 0 0)
(198.537 0 0)
(198.538 0 0)
(198.538 0 0)
(198.538 0 0)
(198.542 0 0)
(198.552 0 0)
(198.567 0 0)
(198.599 0 0)
(198.684 0 0)
(198.851 0 0)
(198.89 0 0)
(198.73 0 0)
(198.578 0 0)
(198.491 0 0)
(198.479 0 0)
(198.495 0 0)
(198.495 0 0)
(198.488 0 0)
(198.506 0 0)
(198.537 0 0)
(198.539 0 0)
(198.513 0 0)
(198.509 0 0)
(198.538 0 0)
(198.553 0 0)
(198.527 0 0)
(198.503 0 0)
(198.524 0 0)
(198.556 0 0)
(198.545 0 0)
(198.507 0 0)
(198.503 0 0)
(198.536 0 0)
(198.549 0 0)
(198.517 0 0)
(198.492 0 0)
(198.516 0 0)
(198.548 0 0)
(198.532 0 0)
(198.496 0 0)
(198.501 0 0)
(198.537 0 0)
(198.543 0 0)
(198.507 0 0)
(198.489 0 0)
(198.52 0 0)
(198.548 0 0)
(198.524 0 0)
(198.488 0 0)
(198.499 0 0)
(198.537 0 0)
(198.538 0 0)
(198.502 0 0)
(198.487 0 0)
(198.519 0 0)
(198.543 0 0)
(198.516 0 0)
(198.483 0 0)
(198.501 0 0)
(198.539 0 0)
(198.533 0 0)
(198.493 0 0)
(198.482 0 0)
(198.517 0 0)
(198.539 0 0)
(198.511 0 0)
(198.478 0 0)
(198.496 0 0)
(198.532 0 0)
(198.523 0 0)
(198.484 0 0)
(198.479 0 0)
(198.517 0 0)
(198.532 0 0)
(198.495 0 0)
(198.465 0 0)
(198.491 0 0)
(198.528 0 0)
(198.512 0 0)
(198.468 0 0)
(198.464 0 0)
(198.502 0 0)
(198.518 0 0)
(198.483 0 0)
(198.45 0 0)
(198.471 0 0)
(198.504 0 0)
(198.488 0 0)
(198.445 0 0)
(198.444 0 0)
(198.481 0 0)
(198.486 0 0)
(198.441 0 0)
(198.414 0 0)
(198.443 0 0)
(198.472 0 0)
(198.44 0 0)
(198.391 0 0)
(198.396 0 0)
(198.434 0 0)
(198.428 0 0)
(198.375 0 0)
(198.346 0 0)
(198.372 0 0)
(198.393 0 0)
(198.353 0 0)
(198.299 0 0)
(198.299 0 0)
(198.328 0 0)
(198.311 0 0)
(198.248 0 0)
(198.215 0 0)
(198.232 0 0)
(198.238 0 0)
(198.182 0 0)
(198.119 0 0)
(198.11 0 0)
(198.122 0 0)
(198.085 0 0)
(198.007 0 0)
(197.961 0 0)
(197.958 0 0)
(197.94 0 0)
(197.862 0 0)
(197.782 0 0)
(197.745 0 0)
(197.724 0 0)
(197.655 0 0)
(197.548 0 0)
(197.467 0 0)
(197.419 0 0)
(197.356 0 0)
(197.228 0 0)
(197.094 0 0)
(197.003 0 0)
(196.93 0 0)
(196.789 0 0)
(196.588 0 0)
(196.425 0 0)
(196.312 0 0)
(196.157 0 0)
(195.88 0 0)
(195.591 0 0)
(195.392 0 0)
(195.218 0 0)
(194.872 0 0)
(194.399 0 0)
(194.035 0 0)
(193.737 0 0)
(193.24 0 0)
(192.494 0 0)
(191.692 0 0)
(190.565 0 0)
(188.394 0 0)
(183.689 0 0)
(170.562 0 0)
(125.75 0 0)
(54.1926 0 0)
(14.8934 0 0)
(3.72354 0 0)
(0.892412 0 0)
(0.211445 0 0)
(0.0499862 0 0)
(0.011811 0 0)
(0.00279045 0 0)
(0.000659204 0 0)
(0.000155719 0 0)
(3.67828e-05 0 0)
(8.6883e-06 0 0)
(2.05216e-06 0 0)
(4.84699e-07 0 0)
(1.14476e-07 0 0)
(2.70321e-08 0 0)
(6.38147e-09 0 0)
(1.50179e-09 0 0)
(3.52244e-10 0 0)
(8.02778e-11 0 0)
(1.54633e-11 0 0)
(2.73757e-12 0 0)
(-3.95559e-12 0 0)
(-3.80685e-12 0 0)
(-6.35046e-12 0 0)
(-4.54406e-12 0 0)
(-8.84978e-12 0 0)
(-6.41681e-12 0 0)
(-8.01479e-12 0 0)
(-4.41403e-12 0 0)
(-5.44446e-12 0 0)
(-3.67255e-12 0 0)
(-6.07136e-12 0 0)
(-4.29842e-12 0 0)
(-5.43791e-12 0 0)
(-3.91467e-12 0 0)
(-3.48786e-12 0 0)
(-3.38316e-12 0 0)
(-6.67499e-12 0 0)
(-4.53486e-12 0 0)
(-3.21333e-12 0 0)
(-6.31555e-12 0 0)
(-6.42639e-12 0 0)
(-5.12044e-12 0 0)
(-2.39249e-12 0 0)
(-4.2566e-12 0 0)
(-2.23146e-12 0 0)
(-3.72588e-12 0 0)
(-1.64566e-12 0 0)
(-1.52239e-12 0 0)
(3.42186e-14 0 0)
(-1.82831e-12 0 0)
(-6.07751e-13 0 0)
(-6.93456e-14 0 0)
(4.09942e-12 0 0)
(2.49335e-12 0 0)
(3.95882e-12 0 0)
(-1.37998e-12 0 0)
(3.79121e-13 0 0)
(-1.53328e-12 0 0)
(-6.07938e-13 0 0)
(-2.08782e-12 0 0)
(5.92099e-13 0 0)
(6.90603e-13 0 0)
(-1.27613e-12 0 0)
(-4.40994e-12 0 0)
(-4.45665e-12 0 0)
(-2.0689e-12 0 0)
(-5.62523e-12 0 0)
(-2.01728e-12 0 0)
(-8.72781e-12 0 0)
(-5.00307e-12 0 0)
(-8.51078e-12 0 0)
(-6.35494e-12 0 0)
(-8.70464e-12 0 0)
(-8.47025e-12 0 0)
(-8.68339e-12 0 0)
(-4.56174e-12 0 0)
(-5.67327e-12 0 0)
(-1.67185e-12 0 0)
(-2.47724e-12 0 0)
(2.60424e-12 0 0)
(7.43589e-13 0 0)
(3.6259e-12 0 0)
(-1.64454e-12 0 0)
(-7.8102e-14 0 0)
(-1.33747e-12 0 0)
(-2.05524e-12 0 0)
(-9.28687e-13 0 0)
(-1.16452e-12 0 0)
(-1.66766e-13 0 0)
(9.75214e-13 0 0)
(3.89682e-12 0 0)
(4.38984e-12 0 0)
(5.65065e-12 0 0)
(7.26336e-12 0 0)
(8.59755e-12 0 0)
(9.00593e-12 0 0)
(9.79038e-12 0 0)
(9.15982e-12 0 0)
(9.16889e-12 0 0)
(7.19455e-12 0 0)
(9.60403e-12 0 0)
(1.05474e-11 0 0)
(6.78982e-12 0 0)
(7.13149e-12 0 0)
(3.87425e-12 0 0)
(3.94209e-12 0 0)
(5.50634e-12 0 0)
(4.7462e-12 0 0)
(7.35796e-12 0 0)
(2.84537e-12 0 0)
(6.11326e-12 0 0)
(6.24636e-12 0 0)
(5.71291e-12 0 0)
(2.77124e-12 0 0)
(4.4876e-13 0 0)
(2.26105e-12 0 0)
(1.74286e-12 0 0)
(9.60336e-13 0 0)
(6.09805e-12 0 0)
(6.07644e-12 0 0)
(9.09983e-12 0 0)
(5.53316e-12 0 0)
(5.10088e-12 0 0)
(3.29626e-12 0 0)
(1.02736e-12 0 0)
(2.81625e-12 0 0)
(5.02194e-12 0 0)
(4.93251e-12 0 0)
(7.19917e-12 0 0)
(6.85147e-12 0 0)
(6.4529e-12 0 0)
(7.71739e-12 0 0)
(8.22927e-12 0 0)
(7.8301e-12 0 0)
(8.10014e-12 0 0)
(9.94306e-12 0 0)
(8.62377e-12 0 0)
(9.06987e-12 0 0)
(5.81067e-12 0 0)
(5.68248e-12 0 0)
(6.73228e-12 0 0)
(6.48257e-12 0 0)
(2.7276e-12 0 0)
(4.37902e-12 0 0)
(3.17361e-13 0 0)
(2.1515e-12 0 0)
(2.04216e-12 0 0)
(2.87527e-13 0 0)
(5.45603e-12 0 0)
(3.30183e-12 0 0)
(5.59526e-12 0 0)
(5.94398e-12 0 0)
(3.25461e-12 0 0)
(4.68593e-12 0 0)
(3.81256e-12 0 0)
(2.33191e-12 0 0)
(-1.0619e-13 0 0)
(1.23196e-12 0 0)
(4.88324e-12 0 0)
(3.61714e-12 0 0)
(7.77111e-13 0 0)
(5.60748e-14 0 0)
(-7.42366e-13 0 0)
(5.06183e-13 0 0)
(7.34581e-13 0 0)
(-3.7462e-13 0 0)
(3.65319e-12 0 0)
(2.10769e-12 0 0)
(2.05474e-12 0 0)
(1.58067e-12 0 0)
(-1.18832e-13 0 0)
(4.21961e-12 0 0)
(3.25887e-12 0 0)
(3.23468e-13 0 0)
(3.90937e-12 0 0)
(2.40499e-12 0 0)
(3.16965e-12 0 0)
(-2.66718e-13 0 0)
(3.29246e-12 0 0)
(2.95855e-12 0 0)
(3.32756e-12 0 0)
(4.7874e-12 0 0)
(7.09299e-12 0 0)
(5.51244e-12 0 0)
(1.07897e-11 0 0)
(8.47091e-12 0 0)
(8.24498e-12 0 0)
(1.01423e-11 0 0)
(7.43421e-12 0 0)
(8.16776e-12 0 0)
(7.174e-12 0 0)
(9.79775e-12 0 0)
(1.07179e-11 0 0)
(9.9577e-12 0 0)
(7.12676e-12 0 0)
(1.01176e-11 0 0)
(1.26008e-11 0 0)
(1.38817e-11 0 0)
(1.07861e-11 0 0)
(1.17842e-11 0 0)
(1.01085e-11 0 0)
(1.15116e-11 0 0)
(1.14619e-11 0 0)
(1.32251e-11 0 0)
(1.56076e-11 0 0)
(1.85331e-11 0 0)
(2.04249e-11 0 0)
(2.24003e-11 0 0)
(2.44072e-11 0 0)
(2.54611e-11 0 0)
(2.62183e-11 0 0)
(2.59399e-11 0 0)
(2.53125e-11 0 0)
(2.40708e-11 0 0)
(2.19823e-11 0 0)
(2.35479e-11 0 0)
(2.31088e-11 0 0)
(2.37178e-11 0 0)
(2.08783e-11 0 0)
(1.99627e-11 0 0)
(1.79803e-11 0 0)
(2.32184e-11 0 0)
(2.26538e-11 0 0)
(2.40216e-11 0 0)
(2.42165e-11 0 0)
(2.51688e-11 0 0)
(2.42881e-11 0 0)
(2.463e-11 0 0)
(2.32319e-11 0 0)
(2.49534e-11 0 0)
(2.69751e-11 0 0)
(2.7536e-11 0 0)
(2.8706e-11 0 0)
(2.9161e-11 0 0)
(3.04109e-11 0 0)
(3.00633e-11 0 0)
(3.10062e-11 0 0)
(3.11753e-11 0 0)
(3.11433e-11 0 0)
(2.80461e-11 0 0)
(2.92715e-11 0 0)
(2.64893e-11 0 0)
(2.67067e-11 0 0)
(2.5607e-11 0 0)
(2.82524e-11 0 0)
(2.73064e-11 0 0)
(2.85061e-11 0 0)
(2.48639e-11 0 0)
(2.55173e-11 0 0)
(2.35248e-11 0 0)
(2.31447e-11 0 0)
(2.24741e-11 0 0)
(2.05182e-11 0 0)
(2.00252e-11 0 0)
(2.13454e-11 0 0)
(2.38623e-11 0 0)
(2.45201e-11 0 0)
(2.38723e-11 0 0)
(2.15549e-11 0 0)
(2.29594e-11 0 0)
(2.17187e-11 0 0)
(2.01207e-11 0 0)
(1.91942e-11 0 0)
(2.27803e-11 0 0)
(2.02107e-11 0 0)
(2.4164e-11 0 0)
(2.06573e-11 0 0)
(2.28117e-11 0 0)
(2.02811e-11 0 0)
(2.46741e-11 0 0)
(2.29803e-11 0 0)
)
;

boundaryField
{
    sides
    {
        type            zeroGradient;
    }
    empty
    {
        type            empty;
    }
}


// ************************************************************************* //
