-4.995 	400 	5.76072e-12 	100000
-4.985 	400 	5.89495e-12 	100000
-4.975 	400 	1.01206e-11 	100000
-4.965 	400 	7.4893e-12 	100000
-4.955 	400 	8.092e-12 	100000
-4.945 	400 	1.07797e-11 	100000
-4.935 	400 	1.09669e-11 	100000
-4.925 	400 	1.12532e-11 	100000
-4.915 	400 	9.52884e-12 	100000
-4.905 	400 	8.83339e-12 	100000
-4.895 	400 	5.72231e-12 	100000
-4.885 	400 	6.14284e-12 	100000
-4.875 	400 	4.10953e-12 	100000
-4.865 	400 	4.40021e-12 	100000
-4.855 	400 	1.50743e-12 	100000
-4.845 	400 	4.0036e-13 	100000
-4.835 	400 	4.45617e-12 	100000
-4.825 	400 	4.35185e-12 	100000
-4.815 	400 	2.48096e-12 	100000
-4.805 	400 	3.71327e-12 	100000
-4.795 	400 	2.10061e-12 	100000
-4.785 	400 	3.24151e-12 	100000
-4.775 	400 	3.12802e-12 	100000
-4.765 	400 	1.4684e-12 	100000
-4.755 	400 	2.13664e-13 	100000
-4.745 	400 	3.77774e-13 	100000
-4.735 	400 	7.43141e-13 	100000
-4.725 	400 	8.37438e-13 	100000
-4.715 	400 	1.08547e-12 	100000
-4.705 	400 	3.18766e-12 	100000
-4.695 	400 	3.66892e-13 	100000
-4.685 	400 	6.98506e-13 	100000
-4.675 	400 	1.09823e-12 	100000
-4.665 	400 	7.59708e-13 	100000
-4.655 	400 	1.55978e-12 	100000
-4.645 	400 	2.82115e-12 	100000
-4.635 	400 	2.19033e-14 	100000
-4.625 	400 	1.82732e-12 	100000
-4.615 	400 	3.49756e-12 	100000
-4.605 	400 	2.03143e-12 	100000
-4.595 	400 	2.30319e-12 	100000
-4.585 	400 	2.56861e-12 	100000
-4.575 	400 	4.77731e-12 	100000
-4.565 	400 	3.37314e-12 	100000
-4.555 	400 	4.50745e-12 	100000
-4.545 	400 	2.5359e-12 	100000
-4.535 	400 	4.20003e-12 	100000
-4.525 	400 	6.43189e-12 	100000
-4.515 	400 	3.39772e-12 	100000
-4.505 	400 	2.03356e-12 	100000
-4.495 	400 	4.52932e-12 	100000
-4.485 	400 	6.33376e-13 	100000
-4.475 	400 	8.70483e-13 	100000
-4.465 	400 	2.37597e-12 	100000
-4.455 	400 	2.78024e-13 	100000
-4.445 	400 	2.13836e-12 	100000
-4.435 	400 	9.78016e-13 	100000
-4.425 	400 	3.46951e-12 	100000
-4.415 	400 	2.29443e-12 	100000
-4.405 	400 	3.89126e-12 	100000
-4.395 	400 	1.34858e-12 	100000
-4.385 	400 	4.42138e-13 	100000
-4.375 	400 	5.67505e-14 	100000
-4.365 	400 	2.02227e-12 	100000
-4.355 	400 	8.92273e-13 	100000
-4.345 	400 	1.63753e-12 	100000
-4.335 	400 	4.09961e-12 	100000
-4.325 	400 	4.6122e-12 	100000
-4.315 	400 	6.86197e-12 	100000
-4.305 	400 	2.91965e-12 	100000
-4.295 	400 	5.36804e-12 	100000
-4.285 	400 	1.15757e-12 	100000
-4.275 	400 	1.07165e-12 	100000
-4.265 	400 	2.00253e-12 	100000
-4.255 	400 	3.85393e-12 	100000
-4.245 	400 	1.31748e-12 	100000
-4.235 	400 	2.65195e-12 	100000
-4.225 	400 	1.93883e-12 	100000
-4.215 	400 	1.35313e-12 	100000
-4.205 	400 	2.36015e-12 	100000
-4.195 	400 	4.62153e-12 	100000
-4.185 	400 	2.15227e-12 	100000
-4.175 	400 	6.23561e-12 	100000
-4.165 	400 	4.03289e-12 	100000
-4.155 	400 	5.35159e-12 	100000
-4.145 	400 	1.96999e-13 	100000
-4.135 	400 	1.74131e-12 	100000
-4.125 	400 	1.94432e-12 	100000
-4.115 	400 	1.32915e-12 	100000
-4.105 	400 	1.1917e-12 	100000
-4.095 	400 	1.27021e-12 	100000
-4.085 	400 	2.45226e-12 	100000
-4.075 	400 	2.88254e-12 	100000
-4.065 	400 	4.67913e-12 	100000
-4.055 	400 	5.46907e-12 	100000
-4.045 	400 	6.71358e-12 	100000
-4.035 	400 	4.43904e-12 	100000
-4.025 	400 	5.70744e-12 	100000
-4.015 	400 	7.01499e-12 	100000
-4.005 	400 	7.53251e-12 	100000
-3.995 	400 	8.85011e-12 	100000
-3.985 	400 	8.07522e-12 	100000
-3.975 	400 	8.96551e-12 	100000
-3.965 	400 	5.62895e-12 	100000
-3.955 	400 	5.04343e-12 	100000
-3.945 	400 	3.56426e-12 	100000
-3.935 	400 	6.06198e-12 	100000
-3.925 	400 	4.88144e-12 	100000
-3.915 	400 	1.81571e-12 	100000
-3.905 	400 	3.1694e-12 	100000
-3.895 	400 	3.0162e-12 	100000
-3.885 	400 	3.55306e-12 	100000
-3.875 	400 	1.18789e-12 	100000
-3.865 	400 	8.70418e-13 	100000
-3.855 	400 	1.28584e-12 	100000
-3.845 	400 	2.16045e-12 	100000
-3.835 	400 	1.21392e-12 	100000
-3.825 	400 	6.20254e-14 	100000
-3.815 	400 	4.82401e-13 	100000
-3.805 	400 	3.15129e-12 	100000
-3.795 	400 	2.54706e-12 	100000
-3.785 	400 	5.684e-12 	100000
-3.775 	400 	5.89813e-12 	100000
-3.765 	400 	6.18886e-12 	100000
-3.755 	400 	1.93107e-12 	100000
-3.745 	400 	1.802e-12 	100000
-3.735 	400 	4.00901e-12 	100000
-3.725 	400 	2.24182e-12 	100000
-3.715 	400 	3.31076e-13 	100000
-3.705 	400 	5.27161e-13 	100000
-3.695 	400 	4.06844e-12 	100000
-3.685 	400 	5.51103e-12 	100000
-3.675 	400 	5.06391e-12 	100000
-3.665 	400 	5.56996e-12 	100000
-3.655 	400 	2.55347e-12 	100000
-3.645 	400 	9.15885e-13 	100000
-3.635 	400 	1.24264e-12 	100000
-3.625 	400 	1.55211e-12 	100000
-3.615 	400 	2.52231e-12 	100000
-3.605 	400 	4.11406e-12 	100000
-3.595 	400 	2.27644e-12 	100000
-3.585 	400 	5.06165e-12 	100000
-3.575 	400 	2.11861e-12 	100000
-3.565 	400 	1.92303e-13 	100000
-3.555 	400 	1.85666e-12 	100000
-3.545 	400 	2.51863e-12 	100000
-3.535 	400 	4.77794e-12 	100000
-3.525 	400 	1.1038e-12 	100000
-3.515 	400 	1.11963e-12 	100000
-3.505 	400 	1.66923e-12 	100000
-3.495 	400 	1.13535e-12 	100000
-3.485 	400 	1.14877e-12 	100000
-3.475 	400 	1.63219e-12 	100000
-3.465 	400 	1.27652e-12 	100000
-3.455 	400 	3.69385e-12 	100000
-3.445 	400 	1.47954e-12 	100000
-3.435 	400 	2.10837e-13 	100000
-3.425 	400 	2.56702e-12 	100000
-3.415 	400 	8.5096e-13 	100000
-3.405 	400 	3.10212e-13 	100000
-3.395 	400 	2.71125e-12 	100000
-3.385 	400 	2.95585e-12 	100000
-3.375 	400 	4.0071e-12 	100000
-3.365 	400 	4.06784e-12 	100000
-3.355 	400 	5.92788e-12 	100000
-3.345 	400 	4.44999e-12 	100000
-3.335 	400 	3.65007e-12 	100000
-3.325 	400 	3.04791e-12 	100000
-3.315 	400 	1.64452e-12 	100000
-3.305 	400 	5.35544e-12 	100000
-3.295 	400 	4.90516e-12 	100000
-3.285 	400 	2.80657e-12 	100000
-3.275 	400 	5.48769e-12 	100000
-3.265 	400 	1.84198e-12 	100000
-3.255 	400 	1.52106e-12 	100000
-3.245 	400 	1.23037e-12 	100000
-3.235 	400 	3.26343e-13 	100000
-3.225 	400 	2.24848e-12 	100000
-3.215 	400 	1.22768e-12 	100000
-3.205 	400 	1.30149e-12 	100000
-3.195 	400 	6.75824e-13 	100000
-3.185 	400 	2.56008e-12 	100000
-3.175 	400 	3.65104e-12 	100000
-3.165 	400 	5.00542e-12 	100000
-3.155 	400 	2.66173e-13 	100000
-3.145 	400 	1.71434e-12 	100000
-3.135 	400 	1.34548e-13 	100000
-3.125 	400 	4.26127e-12 	100000
-3.115 	400 	2.5867e-12 	100000
-3.105 	400 	4.56997e-13 	100000
-3.095 	400 	1.56059e-12 	100000
-3.085 	400 	9.07887e-13 	100000
-3.075 	400 	4.38025e-12 	100000
-3.065 	400 	1.03266e-12 	100000
-3.055 	400 	9.42824e-13 	100000
-3.045 	400 	6.55541e-14 	100000
-3.035 	400 	4.71333e-12 	100000
-3.025 	400 	1.05391e-12 	100000
-3.015 	400 	5.34648e-12 	100000
-3.005 	400 	4.23754e-12 	100000
-2.995 	400 	5.28426e-12 	100000
-2.985 	400 	3.09042e-12 	100000
-2.975 	400 	3.67562e-12 	100000
-2.965 	400 	3.22815e-12 	100000
-2.955 	400 	2.79543e-12 	100000
-2.945 	400 	4.03379e-12 	100000
-2.935 	400 	5.2763e-13 	100000
-2.925 	400 	2.14526e-13 	100000
-2.915 	400 	1.06846e-12 	100000
-2.905 	400 	4.33234e-12 	100000
-2.895 	400 	2.72561e-12 	100000
-2.885 	400 	3.47769e-13 	100000
-2.875 	400 	3.44756e-13 	100000
-2.865 	400 	3.02102e-12 	100000
-2.855 	400 	2.85579e-12 	100000
-2.845 	400 	3.73874e-12 	100000
-2.835 	400 	1.84422e-12 	100000
-2.825 	400 	1.04804e-12 	100000
-2.815 	400 	7.95492e-13 	100000
-2.805 	400 	1.29764e-13 	100000
-2.795 	400 	2.56492e-12 	100000
-2.785 	400 	2.39599e-12 	100000
-2.775 	400 	1.33686e-12 	100000
-2.765 	400 	6.09042e-13 	100000
-2.755 	400 	1.29725e-12 	100000
-2.745 	400 	5.57078e-13 	100000
-2.735 	400 	4.65648e-12 	100000
-2.725 	400 	2.72423e-12 	100000
-2.715 	400 	3.71661e-13 	100000
-2.705 	400 	2.47348e-12 	100000
-2.695 	400 	1.89759e-12 	100000
-2.685 	400 	8.79215e-13 	100000
-2.675 	400 	4.60293e-12 	100000
-2.665 	400 	1.33203e-12 	100000
-2.655 	400 	4.40373e-12 	100000
-2.645 	400 	1.69155e-12 	100000
-2.635 	400 	2.07144e-12 	100000
-2.625 	400 	1.08673e-12 	100000
-2.615 	400 	2.76296e-13 	100000
-2.605 	400 	1.2693e-12 	100000
-2.595 	400 	1.58247e-12 	100000
-2.585 	400 	3.11448e-13 	100000
-2.575 	400 	1.68468e-12 	100000
-2.565 	400 	1.42485e-13 	100000
-2.555 	400 	8.71661e-14 	100000
-2.545 	400 	8.22433e-13 	100000
-2.535 	400 	5.265e-13 	100000
-2.525 	400 	3.14133e-12 	100000
-2.515 	400 	4.44182e-12 	100000
-2.505 	400 	1.64357e-12 	100000
-2.495 	400 	2.91926e-12 	100000
-2.485 	400 	5.13401e-12 	100000
-2.475 	400 	4.03767e-12 	100000
-2.465 	400 	5.27659e-12 	100000
-2.455 	400 	2.30244e-12 	100000
-2.445 	400 	1.92598e-12 	100000
-2.435 	400 	7.65228e-13 	100000
-2.425 	400 	2.71281e-12 	100000
-2.415 	400 	4.43959e-13 	100000
-2.405 	400 	5.02084e-13 	100000
-2.395 	400 	1.61119e-12 	100000
-2.385 	400 	4.97556e-14 	100000
-2.375 	400 	2.31712e-12 	100000
-2.365 	400 	7.55534e-13 	100000
-2.355 	400 	4.70829e-14 	100000
-2.345 	400 	6.84852e-13 	100000
-2.335 	400 	1.47519e-12 	100000
-2.325 	400 	2.39443e-12 	100000
-2.315 	400 	2.84488e-13 	100000
-2.305 	400 	1.12378e-12 	100000
-2.295 	400 	1.05167e-12 	100000
-2.285 	400 	5.00568e-13 	100000
-2.275 	400 	2.15173e-12 	100000
-2.265 	400 	3.70603e-12 	100000
-2.255 	400 	4.90717e-12 	100000
-2.245 	400 	5.63371e-12 	100000
-2.235 	400 	3.58624e-12 	100000
-2.225 	400 	4.66209e-12 	100000
-2.215 	400 	4.45893e-12 	100000
-2.205 	400 	2.05395e-12 	100000
-2.195 	400 	1.80147e-12 	100000
-2.185 	400 	4.43901e-13 	100000
-2.175 	400 	1.73825e-12 	100000
-2.165 	400 	4.80576e-13 	100000
-2.155 	400 	3.06465e-12 	100000
-2.145 	400 	3.17336e-12 	100000
-2.135 	400 	1.33069e-12 	100000
-2.125 	400 	2.72162e-13 	100000
-2.115 	400 	1.88949e-13 	100000
-2.105 	400 	2.58119e-17 	100000
-2.095 	400 	1.84354e-14 	100000
-2.085 	400 	1.89567e-12 	100000
-2.075 	400 	3.14497e-12 	100000
-2.065 	400 	1.68467e-12 	100000
-2.055 	400 	4.9553e-13 	100000
-2.045 	400 	2.18845e-12 	100000
-2.035 	400 	1.69927e-12 	100000
-2.025 	400 	3.11285e-12 	100000
-2.015 	400 	1.55247e-12 	100000
-2.005 	400 	1.12163e-12 	100000
-1.995 	400 	2.99756e-12 	100000
-1.985 	400 	2.03418e-12 	100000
-1.975 	400 	1.76561e-17 	100000
-1.965 	400 	1.10151e-12 	100000
-1.955 	400 	6.3314e-13 	100000
-1.945 	400 	1.01659e-12 	100000
-1.935 	400 	4.21966e-13 	100000
-1.925 	400 	4.18823e-13 	100000
-1.915 	400 	9.7207e-14 	100000
-1.905 	400 	2.29434e-13 	100000
-1.895 	400 	2.28601e-16 	100000
-1.885 	400 	1.77766e-12 	100000
-1.875 	400 	2.00707e-12 	100000
-1.865 	400 	7.31905e-13 	100000
-1.855 	400 	1.60691e-12 	100000
-1.845 	400 	3.31183e-13 	100000
-1.835 	400 	1.66775e-17 	100000
-1.825 	400 	3.4939e-18 	100000
-1.815 	400 	1.42264e-17 	100000
-1.805 	400 	1.70512e-16 	100000
-1.795 	400 	8.78793e-13 	100000
-1.785 	400 	2.27257e-21 	100000
-1.775 	400 	8.78785e-13 	100000
-1.765 	400 	7.48868e-17 	100000
-1.755 	400 	2.22954e-13 	100000
-1.745 	400 	1.97178e-23 	100000
-1.735 	400 	2.22954e-13 	100000
-1.725 	400 	7.97195e-17 	100000
-1.715 	400 	1.10152e-12 	100000
-1.705 	400 	6.3314e-13 	100000
-1.695 	400 	1.01659e-12 	100000
-1.685 	400 	4.21966e-13 	100000
-1.675 	400 	4.18823e-13 	100000
-1.665 	400 	9.7207e-14 	100000
-1.655 	400 	2.29434e-13 	100000
-1.645 	400 	2.28601e-16 	100000
-1.635 	400 	1.77766e-12 	100000
-1.625 	400 	2.00707e-12 	100000
-1.615 	400 	7.31905e-13 	100000
-1.605 	400 	1.60691e-12 	100000
-1.595 	400 	3.31183e-13 	100000
-1.585 	400 	1.69243e-17 	100000
-1.575 	400 	6.43576e-18 	100000
-1.565 	400 	5.30868e-13 	100000
-1.555 	400 	6.00457e-14 	100000
-1.545 	400 	8.40168e-13 	100000
-1.535 	400 	1.13058e-12 	100000
-1.525 	400 	1.35498e-12 	100000
-1.515 	400 	2.62245e-12 	100000
-1.505 	400 	2.72913e-12 	100000
-1.495 	400 	1.53934e-12 	100000
-1.485 	400 	3.51728e-13 	100000
-1.475 	400 	1.12685e-12 	100000
-1.465 	400 	1.85208e-13 	100000
-1.455 	400 	2.20336e-12 	100000
-1.445 	400 	2.21235e-13 	100000
-1.435 	400 	2.46641e-12 	100000
-1.425 	400 	3.94139e-13 	100000
-1.415 	400 	5.15606e-13 	100000
-1.405 	400 	2.35637e-12 	100000
-1.395 	400 	2.86493e-13 	100000
-1.385 	400 	1.1755e-12 	100000
-1.375 	400 	2.81307e-12 	100000
-1.365 	400 	3.79977e-13 	100000
-1.355 	400 	8.13849e-13 	100000
-1.345 	400 	8.23672e-13 	100000
-1.335 	400 	4.1162e-13 	100000
-1.325 	400 	1.54058e-12 	100000
-1.315 	400 	1.09702e-12 	100000
-1.305 	400 	1.68442e-12 	100000
-1.295 	400 	1.87754e-12 	100000
-1.285 	400 	1.58931e-12 	100000
-1.275 	400 	3.39572e-12 	100000
-1.265 	400 	1.85065e-12 	100000
-1.255 	400 	5.06481e-15 	100000
-1.245 	400 	1.74424e-18 	100000
-1.235 	400 	1.43485e-17 	100000
-1.225 	400 	1.71965e-16 	100000
-1.215 	400 	8.88837e-13 	100000
-1.205 	400 	5.60583e-24 	100000
-1.195 	400 	8.88837e-13 	100000
-1.185 	400 	1.71965e-16 	100000
-1.175 	400 	1.43462e-17 	100000
-1.165 	400 	2.06778e-18 	100000
-1.155 	400 	2.94424e-17 	100000
-1.145 	400 	8.92593e-13 	100000
-1.135 	400 	1.78022e-12 	100000
-1.125 	400 	4.03335e-13 	100000
-1.115 	400 	6.85093e-15 	100000
-1.105 	400 	1.75875e-12 	100000
-1.095 	400 	2.94634e-13 	100000
-1.085 	400 	1.59367e-12 	100000
-1.075 	400 	4.52499e-13 	100000
-1.065 	400 	1.14046e-12 	100000
-1.055 	400 	1.25588e-12 	100000
-1.045 	400 	1.7098e-12 	100000
-1.035 	400 	1.44204e-12 	100000
-1.025 	400 	3.42079e-12 	100000
-1.015 	400 	1.52913e-12 	100000
-1.005 	400 	7.8877e-13 	100000
-0.995 	400 	8.54207e-14 	100000
-0.985 	400 	1.20704e-18 	100000
-0.975 	400 	1.17055e-20 	100000
-0.965 	400 	1.0429e-24 	100000
-0.955 	400 	1.19519e-27 	100000
-0.945 	400 	7.38693e-31 	100000
-0.935 	400 	1.15595e-34 	100000
-0.925 	400 	4.52949e-37 	100000
-0.915 	400 	1.40299e-34 	100000
-0.905 	400 	6.52713e-33 	100000
-0.895 	400 	3.22057e-28 	100000
-0.885 	400 	8.36289e-27 	100000
-0.875 	400 	3.02696e-21 	100000
-0.865 	400 	3.48351e-20 	100000
-0.855 	400 	2.34502e-14 	100000
-0.845 	400 	8.30742e-15 	100000
-0.835 	400 	1.87412e-13 	100000
-0.825 	400 	3.95527e-12 	100000
-0.815 	400 	1.34446e-11 	100000
-0.805 	400 	5.12248e-11 	100000
-0.795 	400 	1.69298e-10 	100000
-0.785 	400 	5.44513e-10 	100000
-0.775 	400 	1.70602e-09 	100000
-0.765 	400 	5.25928e-09 	100000
-0.755 	400 	1.59144e-08 	100000
-0.745 	400 	4.72983e-08 	100000
-0.735 	400 	1.38039e-07 	100000
-0.725 	400 	3.95458e-07 	100000
-0.715 	400 	1.11159e-06 	100000
-0.705 	400 	3.06424e-06 	100000
-0.695 	400 	8.2795e-06 	100000
-0.685 	400 	2.1915e-05 	100000
-0.675 	400 	5.67894e-05 	100000
-0.665 	400 	0.000143978 	100000
-0.655 	400 	0.000356876 	99999.9
-0.645 	400 	0.00086416 	99999.7
-0.635 	399.999 	0.00204249 	99999.3
-0.625 	399.998 	0.00470776 	99998.4
-0.615 	399.996 	0.0105709 	99996.4
-0.605 	399.991 	0.0230972 	99992.1
-0.595 	399.981 	0.0490471 	99983.3
-0.585 	399.96 	0.10108 	99965.5
-0.575 	399.921 	0.201848 	99930.9
-0.565 	399.847 	0.389856 	99866.3
-0.555 	399.714 	0.726759 	99750.4
-0.545 	399.485 	1.30442 	99551.2
-0.535 	399.111 	2.24736 	99225.4
-0.525 	398.53 	3.70074 	98721.8
-0.515 	397.691 	5.77845 	97996.7
-0.505 	396.593 	8.49589 	97053.3
-0.495 	395.265 	11.8021 	95922
-0.485 	393.729 	15.6445 	94623.6
-0.475 	392.008 	19.9614 	93184.7
-0.465 	390.136 	24.6764 	91636.6
-0.455 	388.143 	29.7119 	90009.7
-0.445 	386.06 	34.9985 	88330.1
-0.435 	383.908 	40.4783 	86619
-0.425 	381.706 	46.1061 	84892.7
-0.415 	379.469 	51.8467 	83163.3
-0.405 	377.206 	57.6728 	81440.2
-0.395 	374.926 	63.5631 	79730.1
-0.385 	372.636 	69.5003 	78038.3
-0.375 	370.342 	75.4701 	76369.1
-0.365 	368.049 	81.4599 	74725.7
-0.355 	365.76 	87.4586 	73110.8
-0.345 	363.479 	93.4557 	71526.9
-0.335 	361.212 	99.4411 	69975.9
-0.325 	358.96 	105.405 	68459.7
-0.315 	356.728 	111.336 	66980.1
-0.305 	354.52 	117.225 	65538.8
-0.295 	352.341 	123.058 	64137.4
-0.285 	350.194 	128.824 	62777.9
-0.275 	348.085 	134.509 	61462.2
-0.265 	346.018 	140.097 	60192.2
-0.255 	344.008 	145.571 	58970.4
-0.245 	342.031 	150.911 	57799
-0.235 	340.183 	156.1 	56681.4
-0.225 	338.243 	161.103 	55618.7
-0.215 	336.742 	165.915 	54618.1
-0.205 	334.673 	170.481 	53676.2
-0.195 	333.696 	174.797 	52805.8
-0.185 	331.68 	178.819 	52002.2
-0.175 	330.7 	182.514 	51272.6
-0.165 	329.589 	185.877 	50619.8
-0.155 	328.125 	188.847 	50043.9
-0.145 	327.626 	191.422 	49552.2
-0.135 	326.845 	193.598 	49136.9
-0.125 	325.927 	195.354 	48803.8
-0.115 	325.698 	196.722 	48548.8
-0.105 	325.491 	197.714 	48358.4
-0.095 	325.049 	198.373 	48232
-0.085 	324.923 	198.783 	48154.2
-0.075 	324.979 	198.983 	48115.9
-0.065 	324.998 	199.032 	48099.3
-0.055 	324.965 	199.036 	48099.3
-0.045 	324.954 	199.044 	48100.3
-0.035 	324.993 	199.038 	48103.9
-0.025 	325.066 	199.005 	48109.2
-0.015 	325.102 	198.939 	48118.4
-0.005 	325.129 	198.852 	48134.7
0.005 	325.168 	198.762 	48150
0.015 	325.256 	198.685 	48162.1
0.025 	325.301 	198.632 	48171.4
0.035 	325.31 	198.602 	48175
0.045 	325.337 	198.585 	48176.9
0.055 	325.403 	198.577 	48177.9
0.065 	325.442 	198.575 	48179.7
0.075 	325.47 	198.577 	48181
0.085 	325.533 	198.577 	48181.4
0.095 	325.605 	198.574 	48182
0.105 	325.643 	198.572 	48182.2
0.115 	325.672 	198.57 	48182.2
0.125 	325.744 	198.57 	48182.2
0.135 	325.953 	198.569 	48181.8
0.145 	326.133 	198.567 	48181.8
0.155 	326.187 	198.565 	48182.2
0.165 	326.11 	198.563 	48181.9
0.175 	325.662 	198.568 	48181.6
0.185 	325.226 	198.595 	48181
0.195 	325.182 	198.666 	48183.8
0.205 	326.482 	198.85 	48198
0.215 	335.731 	199.125 	48221.6
0.225 	365.1 	199.088 	48172.3
0.235 	400.98 	198.734 	48163
0.245 	431.445 	198.522 	48175.3
0.255 	454.433 	198.461 	48196.9
0.265 	469.889 	198.438 	48197.8
0.275 	479.179 	198.399 	48181
0.285 	484.178 	198.379 	48174.9
0.295 	486.542 	198.402 	48187.2
0.305 	487.401 	198.424 	48196.8
0.315 	487.492 	198.392 	48184.9
0.325 	487.328 	198.335 	48170.1
0.335 	487.046 	198.321 	48171.9
0.345 	486.937 	198.342 	48190.3
0.355 	486.872 	198.334 	48192.2
0.365 	486.772 	198.265 	48166.1
0.375 	486.736 	198.198 	48156.6
0.385 	486.747 	198.182 	48164.9
0.395 	486.783 	198.178 	48179.3
0.405 	486.744 	198.114 	48165.5
0.415 	486.646 	198.01 	48139.3
0.425 	486.621 	197.941 	48135.6
0.435 	486.647 	197.911 	48146.8
0.445 	486.675 	197.856 	48152.1
0.455 	486.569 	197.726 	48118.5
0.465 	486.503 	197.584 	48101.5
0.475 	486.495 	197.478 	48096.9
0.485 	486.512 	197.393 	48102.2
0.495 	486.485 	197.253 	48092.9
0.505 	486.299 	197.02 	48033.7
0.515 	486.256 	196.794 	48013.4
0.525 	486.217 	196.618 	48006.2
0.535 	486.218 	196.446 	48015.3
0.545 	486.105 	196.136 	47961.2
0.555 	485.866 	195.702 	47875.3
0.565 	485.74 	195.285 	47848.5
0.575 	485.693 	194.936 	47844
0.585 	485.771 	194.581 	47843.2
0.595 	485.267 	193.822 	47669.6
0.605 	484.595 	192.507 	47478.4
0.615 	484.021 	190.617 	47292.2
0.625 	482.736 	187.146 	46852.6
0.635 	479.749 	178.568 	45835.4
0.645 	472.492 	146.662 	42714.9
0.655 	429.823 	77.4979 	31543.5
0.665 	408.72 	22.9871 	26907
0.675 	402.207 	5.88772 	25481.6
0.685 	400.528 	1.4168 	25115.3
0.695 	400.124 	0.334415 	25027.2
0.705 	400.029 	0.078524 	25006.4
0.715 	400.007 	0.0184147 	25001.5
0.725 	400.002 	0.004317 	25000.4
0.735 	400 	0.00101188 	25000.1
0.745 	400 	0.000237122 	25000
0.755 	400 	5.5551e-05 	25000
0.765 	400 	1.30096e-05 	25000
0.775 	400 	3.04548e-06 	25000
0.785 	400 	7.12585e-07 	25000
0.795 	400 	1.66631e-07 	25000
0.805 	400 	3.89376e-08 	25000
0.815 	400 	9.08998e-09 	25000
0.825 	400 	2.11994e-09 	25000
0.835 	400 	4.94355e-10 	25000
0.845 	400 	1.15533e-10 	25000
0.855 	400 	2.75028e-11 	25000
0.865 	400 	5.66841e-12 	25000
0.875 	400 	1.49298e-12 	25000
0.885 	400 	9.79234e-13 	25000
0.895 	400 	1.10181e-13 	25000
0.905 	400 	5.88273e-13 	25000
0.915 	400 	1.29216e-12 	25000
0.925 	400 	4.46596e-13 	25000
0.935 	400 	2.07897e-12 	25000
0.945 	400 	8.99833e-13 	25000
0.955 	400 	1.48946e-12 	25000
0.965 	400 	1.90072e-13 	25000
0.975 	400 	1.16631e-12 	25000
0.985 	400 	9.15361e-13 	25000
0.995 	400 	1.40102e-12 	25000
1.005 	400 	1.42675e-12 	25000
1.015 	400 	2.20213e-12 	25000
1.025 	400 	2.79215e-12 	25000
1.035 	400 	9.92221e-13 	25000
1.045 	400 	3.30607e-12 	25000
1.055 	400 	3.04235e-13 	25000
1.065 	400 	1.26216e-12 	25000
1.075 	400 	5.49077e-13 	25000
1.085 	400 	5.54279e-13 	25000
1.095 	400 	2.84836e-12 	25000
1.105 	400 	7.93199e-13 	25000
1.115 	400 	3.20906e-13 	25000
1.125 	400 	4.01841e-15 	25000
1.135 	400 	5.49348e-13 	25000
1.145 	400 	3.32205e-13 	25000
1.155 	400 	2.92948e-12 	25000
1.165 	400 	1.54912e-12 	25000
1.175 	400 	1.35391e-13 	25000
1.185 	400 	2.58334e-13 	25000
1.195 	400 	9.02339e-14 	25000
1.205 	400 	8.63853e-14 	25000
1.215 	400 	1.82824e-12 	25000
1.225 	400 	3.04924e-12 	25000
1.235 	400 	9.31044e-13 	25000
1.245 	400 	6.96034e-13 	25000
1.255 	400 	2.02012e-13 	25000
1.265 	400 	9.76385e-13 	25000
1.275 	400 	1.90136e-14 	25000
1.285 	400 	2.91415e-13 	25000
1.295 	400 	1.39821e-12 	25000
1.305 	400 	9.62375e-13 	25000
1.315 	400 	5.85114e-13 	25000
1.325 	400 	2.09323e-12 	25000
1.335 	400 	1.98574e-12 	25000
1.345 	400 	1.65509e-12 	25000
1.355 	400 	1.73358e-12 	25000
1.365 	400 	1.06216e-12 	25000
1.375 	400 	1.45608e-13 	25000
1.385 	400 	4.25856e-13 	25000
1.395 	400 	7.00808e-13 	25000
1.405 	400 	7.60418e-13 	25000
1.415 	400 	5.28309e-13 	25000
1.425 	400 	1.70757e-12 	25000
1.435 	400 	5.8529e-13 	25000
1.445 	400 	1.31232e-12 	25000
1.455 	400 	2.31322e-13 	25000
1.465 	400 	1.82746e-12 	25000
1.475 	400 	1.13539e-12 	25000
1.485 	400 	1.96015e-12 	25000
1.495 	400 	1.47908e-12 	25000
1.505 	400 	2.88396e-12 	25000
1.515 	400 	1.24513e-13 	25000
1.525 	400 	8.42898e-13 	25000
1.535 	400 	4.5714e-13 	25000
1.545 	400 	7.53219e-13 	25000
1.555 	400 	2.26405e-12 	25000
1.565 	400 	3.4746e-12 	25000
1.575 	400 	9.86483e-13 	25000
1.585 	400 	1.50809e-12 	25000
1.595 	400 	1.39504e-12 	25000
1.605 	400 	1.13479e-12 	25000
1.615 	400 	1.24691e-12 	25000
1.625 	400 	1.10288e-12 	25000
1.635 	400 	1.02468e-12 	25000
1.645 	400 	3.42239e-12 	25000
1.655 	400 	1.66923e-12 	25000
1.665 	400 	3.05327e-12 	25000
1.675 	400 	3.57513e-14 	25000
1.685 	400 	4.07516e-13 	25000
1.695 	400 	1.3903e-12 	25000
1.705 	400 	5.69518e-13 	25000
1.715 	400 	1.25605e-13 	25000
1.725 	400 	3.27428e-12 	25000
1.735 	400 	2.36612e-13 	25000
1.745 	400 	6.30324e-13 	25000
1.755 	400 	1.23254e-13 	25000
1.765 	400 	1.34748e-14 	25000
1.775 	400 	1.74881e-12 	25000
1.785 	400 	4.40759e-13 	25000
1.795 	400 	1.86052e-12 	25000
1.805 	400 	3.11566e-12 	25000
1.815 	400 	8.60429e-13 	25000
1.825 	400 	7.05681e-13 	25000
1.835 	400 	2.02008e-13 	25000
1.845 	400 	1.12813e-12 	25000
1.855 	400 	1.61397e-12 	25000
1.865 	400 	7.36711e-13 	25000
1.875 	400 	1.18746e-13 	25000
1.885 	400 	8.46172e-13 	25000
1.895 	400 	9.15789e-13 	25000
1.905 	400 	2.139e-12 	25000
1.915 	400 	6.65914e-13 	25000
1.925 	400 	1.23057e-12 	25000
1.935 	400 	3.52358e-13 	25000
1.945 	400 	1.53262e-12 	25000
1.955 	400 	1.38836e-13 	25000
1.965 	400 	1.72215e-12 	25000
1.975 	400 	8.24294e-13 	25000
1.985 	400 	1.81226e-12 	25000
1.995 	400 	1.36054e-12 	25000
2.005 	400 	3.46585e-13 	25000
2.015 	400 	1.55427e-12 	25000
2.025 	400 	2.25322e-13 	25000
2.035 	400 	2.00998e-12 	25000
2.045 	400 	3.80214e-12 	25000
2.055 	400 	1.48035e-12 	25000
2.065 	400 	3.31232e-13 	25000
2.075 	400 	2.1234e-13 	25000
2.085 	400 	2.74389e-13 	25000
2.095 	400 	4.20745e-14 	25000
2.105 	400 	1.4401e-12 	25000
2.115 	400 	4.07518e-17 	25000
2.125 	400 	3.24353e-18 	25000
2.135 	400 	1.51931e-18 	25000
2.145 	400 	1.66969e-15 	25000
2.155 	400 	1.67911e-15 	25000
2.165 	400 	1.82349e-13 	25000
2.175 	400 	8.73434e-14 	25000
2.185 	400 	3.34291e-12 	25000
2.195 	400 	1.0221e-12 	25000
2.205 	400 	2.78683e-13 	25000
2.215 	400 	1.60415e-12 	25000
2.225 	400 	2.52115e-12 	25000
2.235 	400 	4.88236e-14 	25000
2.245 	400 	6.94198e-13 	25000
2.255 	400 	1.73583e-12 	25000
2.265 	400 	5.04859e-13 	25000
2.275 	400 	9.07292e-13 	25000
2.285 	400 	3.62835e-15 	25000
2.295 	400 	7.86014e-13 	25000
2.305 	400 	4.18517e-13 	25000
2.315 	400 	2.32517e-12 	25000
2.325 	400 	8.24517e-13 	25000
2.335 	400 	9.60278e-13 	25000
2.345 	400 	3.21118e-16 	25000
2.355 	400 	2.77763e-17 	25000
2.365 	400 	1.57274e-20 	25000
2.375 	400 	1.32057e-19 	25000
2.385 	400 	2.22691e-18 	25000
2.395 	400 	4.69375e-14 	25000
2.405 	400 	1.87547e-12 	25000
2.415 	400 	1.63957e-12 	25000
2.425 	400 	2.29287e-13 	25000
2.435 	400 	5.13985e-13 	25000
2.445 	400 	1.70765e-12 	25000
2.455 	400 	9.3171e-13 	25000
2.465 	400 	1.10949e-13 	25000
2.475 	400 	8.68489e-13 	25000
2.485 	400 	1.57299e-12 	25000
2.495 	400 	5.84706e-13 	25000
2.505 	400 	2.99789e-12 	25000
2.515 	400 	1.64602e-12 	25000
2.525 	400 	2.02183e-12 	25000
2.535 	400 	2.8593e-12 	25000
2.545 	400 	3.67068e-13 	25000
2.555 	400 	1.92607e-13 	25000
2.565 	400 	2.17612e-12 	25000
2.575 	400 	8.2455e-13 	25000
2.585 	400 	9.60296e-13 	25000
2.595 	400 	3.22577e-16 	25000
2.605 	400 	2.77765e-17 	25000
2.615 	400 	1.57342e-20 	25000
2.625 	400 	1.38242e-19 	25000
2.635 	400 	1.51967e-18 	25000
2.645 	400 	1.66937e-15 	25000
2.655 	400 	1.66939e-15 	25000
2.665 	400 	1.81715e-18 	25000
2.675 	400 	3.0146e-14 	25000
2.685 	400 	1.55804e-13 	25000
2.695 	400 	1.15089e-12 	25000
2.705 	400 	1.36617e-12 	25000
2.715 	400 	1.93224e-12 	25000
2.725 	400 	8.23624e-13 	25000
2.735 	400 	7.42232e-13 	25000
2.745 	400 	1.37771e-12 	25000
2.755 	400 	1.35999e-12 	25000
2.765 	400 	4.00909e-13 	25000
2.775 	400 	2.47306e-12 	25000
2.785 	400 	1.86383e-12 	25000
2.795 	400 	6.9565e-13 	25000
2.805 	400 	1.50642e-13 	25000
2.815 	400 	3.16898e-12 	25000
2.825 	400 	9.9342e-13 	25000
2.835 	400 	1.00954e-12 	25000
2.845 	400 	2.42982e-13 	25000
2.855 	400 	3.6469e-13 	25000
2.865 	400 	1.4631e-12 	25000
2.875 	400 	4.8645e-13 	25000
2.885 	400 	1.43667e-14 	25000
2.895 	400 	4.64297e-13 	25000
2.905 	400 	1.03931e-12 	25000
2.915 	400 	3.16094e-12 	25000
2.925 	400 	1.58276e-12 	25000
2.935 	400 	3.58452e-13 	25000
2.945 	400 	1.2396e-12 	25000
2.955 	400 	1.42143e-12 	25000
2.965 	400 	1.97244e-12 	25000
2.975 	400 	1.13677e-12 	25000
2.985 	400 	5.21175e-13 	25000
2.995 	400 	2.77434e-12 	25000
3.005 	400 	1.06356e-12 	25000
3.015 	400 	1.28172e-12 	25000
3.025 	400 	1.39793e-12 	25000
3.035 	400 	1.4235e-12 	25000
3.045 	400 	6.40107e-13 	25000
3.055 	400 	2.22669e-12 	25000
3.065 	400 	8.2828e-13 	25000
3.075 	400 	1.39025e-12 	25000
3.085 	400 	3.2231e-12 	25000
3.095 	400 	1.10891e-12 	25000
3.105 	400 	2.86939e-14 	25000
3.115 	400 	1.71445e-13 	25000
3.125 	400 	1.48159e-12 	25000
3.135 	400 	3.54068e-16 	25000
3.145 	400 	1.04719e-12 	25000
3.155 	400 	3.08805e-13 	25000
3.165 	400 	4.25268e-14 	25000
3.175 	400 	9.47671e-13 	25000
3.185 	400 	1.1884e-12 	25000
3.195 	400 	4.24707e-13 	25000
3.205 	400 	1.55552e-12 	25000
3.215 	400 	1.12595e-15 	25000
3.225 	400 	1.65734e-12 	25000
3.235 	400 	2.2109e-12 	25000
3.245 	400 	3.04335e-13 	25000
3.255 	400 	1.88653e-12 	25000
3.265 	400 	2.29902e-12 	25000
3.275 	400 	7.06902e-13 	25000
3.285 	400 	3.13067e-13 	25000
3.295 	400 	6.66557e-13 	25000
3.305 	400 	2.27923e-12 	25000
3.315 	400 	4.8394e-12 	25000
3.325 	400 	1.97699e-12 	25000
3.335 	400 	3.57814e-12 	25000
3.345 	400 	2.20035e-12 	25000
3.355 	400 	2.99468e-14 	25000
3.365 	400 	3.5358e-12 	25000
3.375 	400 	3.22233e-12 	25000
3.385 	400 	3.43413e-12 	25000
3.395 	400 	2.04149e-12 	25000
3.405 	400 	2.31709e-13 	25000
3.415 	400 	2.48719e-12 	25000
3.425 	400 	8.27264e-13 	25000
3.435 	400 	3.25337e-12 	25000
3.445 	400 	6.15325e-13 	25000
3.455 	400 	1.49686e-12 	25000
3.465 	400 	2.22226e-13 	25000
3.475 	400 	1.87336e-12 	25000
3.485 	400 	2.23265e-12 	25000
3.495 	400 	2.97118e-14 	25000
3.505 	400 	1.85135e-12 	25000
3.515 	400 	2.21529e-12 	25000
3.525 	400 	6.91829e-13 	25000
3.535 	400 	2.46083e-13 	25000
3.545 	400 	6.66557e-13 	25000
3.555 	400 	2.27923e-12 	25000
3.565 	400 	4.8394e-12 	25000
3.575 	400 	1.97699e-12 	25000
3.585 	400 	3.57814e-12 	25000
3.595 	400 	2.20035e-12 	25000
3.605 	400 	2.99468e-14 	25000
3.615 	400 	3.5358e-12 	25000
3.625 	400 	3.22233e-12 	25000
3.635 	400 	3.43413e-12 	25000
3.645 	400 	2.04149e-12 	25000
3.655 	400 	2.31709e-13 	25000
3.665 	400 	2.48719e-12 	25000
3.675 	400 	8.28938e-13 	25000
3.685 	400 	3.23662e-12 	25000
3.695 	400 	3.99317e-13 	25000
3.705 	400 	1.99249e-12 	25000
3.715 	400 	9.09795e-13 	25000
3.725 	400 	3.09315e-13 	25000
3.735 	400 	2.68305e-12 	25000
3.745 	400 	5.05921e-13 	25000
3.755 	400 	4.20232e-12 	25000
3.765 	400 	1.93755e-12 	25000
3.775 	400 	1.25957e-12 	25000
3.785 	400 	4.58484e-12 	25000
3.795 	400 	3.57872e-12 	25000
3.805 	400 	6.69525e-12 	25000
3.815 	400 	6.90096e-12 	25000
3.825 	400 	6.67889e-12 	25000
3.835 	400 	2.63945e-12 	25000
3.845 	400 	3.98219e-12 	25000
3.855 	400 	1.4592e-12 	25000
3.865 	400 	1.69734e-14 	25000
3.875 	400 	2.95778e-13 	25000
3.885 	400 	2.02679e-12 	25000
3.895 	400 	4.16594e-12 	25000
3.905 	400 	7.71437e-13 	25000
3.915 	400 	2.71036e-12 	25000
3.925 	400 	9.28061e-14 	25000
3.935 	400 	1.1064e-12 	25000
3.945 	400 	4.0394e-13 	25000
3.955 	400 	2.29927e-12 	25000
3.965 	400 	4.26969e-13 	25000
3.975 	400 	7.34719e-13 	25000
3.985 	400 	1.61142e-12 	25000
3.995 	400 	1.87588e-12 	25000
4.005 	400 	1.98111e-12 	25000
4.015 	400 	4.31651e-12 	25000
4.025 	400 	6.08286e-13 	25000
4.035 	400 	2.12038e-12 	25000
4.045 	400 	2.08036e-13 	25000
4.055 	400 	1.91671e-12 	25000
4.065 	400 	1.95369e-12 	25000
4.075 	400 	5.67022e-12 	25000
4.085 	400 	4.24296e-12 	25000
4.095 	400 	4.58085e-12 	25000
4.105 	400 	4.24374e-12 	25000
4.115 	400 	2.6857e-12 	25000
4.125 	400 	4.34532e-12 	25000
4.135 	400 	6.07146e-13 	25000
4.145 	400 	4.83289e-12 	25000
4.155 	400 	1.65563e-12 	25000
4.165 	400 	2.15141e-12 	25000
4.175 	400 	9.73482e-13 	25000
4.185 	400 	1.67999e-12 	25000
4.195 	400 	1.87716e-13 	25000
4.205 	400 	1.09326e-12 	25000
4.215 	400 	1.35263e-12 	25000
4.225 	400 	2.55909e-12 	25000
4.235 	400 	2.11613e-12 	25000
4.245 	400 	1.93376e-13 	25000
4.255 	400 	2.37399e-12 	25000
4.265 	400 	6.17425e-13 	25000
4.275 	400 	2.67739e-12 	25000
4.285 	400 	6.21405e-13 	25000
4.295 	400 	1.62387e-13 	25000
4.305 	400 	2.81324e-13 	25000