/*--------------------------------*- C++ -*----------------------------------*\
| =========                 |                                                 |
| \\      /  F ield         | OpenFOAM: The Open Source CFD Toolbox           |
|  \\    /   O peration     | Version:  4.1                                   |
|   \\  /    A nd           | Web:      www.OpenFOAM.org                      |
|    \\/     M anipulation  |                                                 |
\*---------------------------------------------------------------------------*/
FoamFile
{
    version     2.0;
    format      ascii;
    class       volScalarField;
    location    "0.0024";
    object      mag(U);
}
// * * * * * * * * * * * * * * * * * * * * * * * * * * * * * * * * * * * * * //

dimensions      [0 1 -1 0 0 0 0];

internalField   nonuniform List<scalar> 
1000
(
1.34741e-11
1.57843e-11
1.77204e-11
1.6228e-11
1.59263e-11
1.62836e-11
1.64351e-11
1.95403e-11
2.09184e-11
2.22848e-11
1.95757e-11
1.94505e-11
1.69309e-11
1.68922e-11
1.36641e-11
1.52938e-11
1.34815e-11
1.6919e-11
1.37505e-11
1.44113e-11
1.37039e-11
1.39952e-11
1.22522e-11
1.27394e-11
7.66678e-12
1.1114e-11
8.56415e-12
1.147e-11
9.29284e-12
8.66191e-12
8.58909e-12
8.03282e-12
7.72766e-12
6.22593e-12
8.37616e-12
3.59404e-12
7.91473e-12
6.5258e-12
1.18776e-11
9.15957e-12
1.40684e-11
1.07567e-11
1.41005e-11
8.20907e-12
1.01079e-11
4.70377e-12
4.37746e-12
4.48368e-12
3.03311e-13
7.51551e-13
3.51316e-12
4.13613e-12
3.61111e-12
1.72395e-12
6.02165e-14
2.87737e-12
5.12055e-12
7.52717e-12
3.16896e-12
6.22491e-12
2.11498e-12
7.71278e-13
4.61331e-13
8.52165e-13
9.7505e-13
9.498e-13
4.21632e-12
5.36862e-12
6.72319e-12
5.50856e-12
1.04321e-11
5.89472e-12
6.37917e-12
5.19441e-12
6.0747e-12
3.31993e-12
5.67563e-12
4.46838e-12
5.82114e-12
5.38773e-12
6.04762e-12
5.01022e-12
6.43678e-12
6.22526e-12
2.33913e-12
4.27872e-12
6.49165e-12
7.18865e-12
4.46762e-12
8.1837e-12
5.9038e-12
1.01389e-11
6.7552e-12
8.19195e-12
6.4392e-12
8.57831e-12
7.08703e-12
8.11021e-12
6.40083e-12
9.20215e-12
9.80071e-12
6.75776e-12
6.07446e-12
3.40385e-12
3.38179e-12
4.31443e-13
3.25058e-12
6.66986e-12
6.81439e-12
7.32262e-12
6.22262e-12
4.88275e-12
5.01797e-12
7.07112e-12
4.93121e-12
5.23541e-12
5.19233e-12
7.77816e-12
8.71214e-12
9.03709e-12
7.81729e-12
5.25184e-12
3.47191e-12
3.49219e-12
1.63138e-12
1.19387e-14
6.20645e-14
3.91593e-12
1.18843e-12
3.03523e-12
3.82105e-12
3.07591e-12
1.49057e-12
5.3759e-13
2.29237e-12
4.22103e-12
2.2138e-12
1.35862e-12
1.28723e-12
7.82695e-13
5.06245e-13
2.15958e-12
1.60608e-12
1.68756e-13
2.25984e-12
8.13699e-13
9.83318e-15
2.21823e-13
2.8674e-12
2.01209e-12
5.37988e-12
2.69552e-12
4.62308e-12
9.86578e-13
1.75032e-12
1.16876e-12
2.98888e-12
2.70139e-12
3.52169e-12
3.32738e-12
4.93427e-12
1.80547e-12
2.84535e-12
1.2928e-12
8.32035e-14
1.84626e-12
8.28774e-14
1.46195e-12
1.98106e-12
2.22024e-12
1.42515e-12
1.16856e-12
1.25681e-12
2.12199e-12
3.37832e-12
1.85011e-12
1.82284e-12
1.10551e-13
2.84059e-12
1.00605e-12
8.13951e-13
1.86478e-12
3.86064e-12
6.39187e-12
6.48758e-12
8.93597e-12
6.65484e-12
8.04832e-12
7.20407e-12
8.62739e-12
8.28526e-12
8.43605e-12
9.21234e-12
5.57972e-12
7.74459e-12
4.91087e-12
5.99512e-12
2.8164e-12
4.9603e-12
2.81571e-12
4.7817e-12
7.57902e-13
2.33777e-12
1.88753e-12
5.03415e-12
4.81221e-12
6.11477e-12
6.60628e-12
6.45806e-12
6.83317e-12
5.42686e-12
3.81387e-12
2.6174e-12
1.65582e-12
9.81635e-13
2.92704e-12
1.95264e-12
6.02018e-12
2.50315e-12
5.02905e-12
3.10339e-12
6.96139e-12
1.6044e-12
6.38509e-12
1.27228e-12
5.36814e-12
1.45622e-12
3.42841e-12
4.63547e-12
1.16872e-12
1.11085e-12
4.3961e-12
4.71614e-12
1.88706e-12
4.22867e-12
9.22325e-13
5.53471e-12
2.3882e-12
1.1611e-12
7.17563e-13
3.70216e-12
1.41477e-12
5.74025e-12
1.83425e-12
3.38428e-12
3.65609e-12
1.79375e-12
1.14813e-12
4.88244e-13
2.47424e-12
1.04727e-12
4.49275e-13
2.18471e-12
1.6029e-13
1.07012e-12
1.80678e-12
1.6479e-12
1.54199e-12
2.13796e-12
3.16766e-12
1.99091e-12
5.48065e-13
4.07247e-13
1.71285e-13
1.20925e-12
7.95243e-13
6.92933e-13
2.69402e-12
6.34782e-13
1.83318e-12
1.29402e-12
1.85731e-12
2.2312e-13
7.89451e-13
1.61073e-12
2.60026e-12
5.84151e-13
3.44869e-12
2.69078e-12
3.33749e-13
1.29013e-12
3.96345e-12
9.16145e-13
8.71014e-14
1.31875e-12
4.38281e-12
2.11486e-12
3.4836e-12
8.89007e-13
3.49985e-13
1.64956e-12
3.74616e-12
5.6619e-12
5.99514e-12
6.75595e-12
8.09041e-12
6.24985e-12
7.50782e-12
7.87417e-12
7.56289e-12
1.01739e-11
7.21751e-12
9.29477e-12
5.41309e-12
4.99292e-12
4.47869e-12
5.52236e-12
4.72096e-12
6.73838e-12
4.81348e-12
5.24957e-12
3.53239e-12
2.41574e-12
3.42416e-12
2.2962e-13
2.81575e-12
2.89241e-12
6.1942e-12
4.35759e-12
3.47345e-12
2.58811e-12
1.49216e-12
1.69207e-12
1.10989e-12
2.12027e-12
2.80139e-12
2.21223e-12
2.71471e-13
7.20284e-13
4.49116e-13
1.84836e-12
1.40875e-13
2.07874e-12
4.54802e-12
3.05614e-12
4.5938e-12
1.0071e-12
1.63393e-12
1.21068e-12
1.82262e-12
1.81564e-13
1.08721e-12
1.57218e-13
4.88478e-13
2.31827e-13
5.03033e-13
3.60352e-12
1.6963e-12
3.12618e-12
1.67317e-12
1.66019e-12
2.68066e-12
2.41905e-13
1.26256e-12
2.97431e-13
3.18344e-14
2.83425e-12
1.26806e-12
9.31598e-13
3.40069e-13
3.93166e-12
8.73569e-12
2.31257e-11
6.1175e-11
1.58058e-10
4.10411e-10
1.03677e-09
2.5827e-09
6.34779e-09
1.54092e-08
3.69472e-08
8.75046e-08
2.0469e-07
4.72821e-07
1.07828e-06
2.42716e-06
5.39108e-06
1.18124e-05
2.55246e-05
5.43739e-05
0.000114153
0.000236094
0.000480855
0.000964028
0.00190157
0.00368865
0.00703263
0.0131707
0.0242136
0.0436678
0.077192
0.133634
0.226349
0.374711
0.605566
0.954134
1.46352
2.18155
3.15227
4.39807
5.90712
7.65119
9.6065
11.7519
14.0645
16.5206
19.0974
21.7748
24.5355
27.365
30.2517
33.1859
36.16
39.1679
42.2045
45.2657
48.3479
51.4482
54.5643
57.6939
60.8351
63.9864
67.1462
70.3132
73.4862
76.6639
79.8454
83.0295
86.2153
89.4018
92.588
95.7729
98.9557
102.135
105.31
108.48
111.644
114.8
117.947
121.084
124.209
127.321
130.419
133.5
136.562
139.604
142.623
145.616
148.581
151.515
154.414
157.274
160.093
162.863
165.583
168.244
170.844
173.371
175.826
178.192
180.468
182.643
184.708
186.658
188.475
190.157
191.695
193.078
194.304
195.37
196.275
197.018
197.613
198.071
198.399
198.62
198.76
198.836
198.862
198.863
198.864
198.862
198.851
198.829
198.789
198.738
198.692
198.654
198.627
198.609
198.598
198.591
198.588
198.586
198.584
198.582
198.581
198.58
198.579
198.577
198.576
198.575
198.574
198.572
198.571
198.57
198.57
198.57
198.569
198.568
198.567
198.565
198.564
198.562
198.561
198.56
198.558
198.557
198.556
198.555
198.554
198.552
198.551
198.551
198.551
198.55
198.549
198.548
198.546
198.545
198.544
198.543
198.542
198.542
198.541
198.539
198.539
198.538
198.536
198.54
198.554
198.576
198.62
198.734
198.944
198.968
198.74
198.55
198.468
198.473
198.487
198.479
198.476
198.507
198.536
198.521
198.49
198.498
198.534
198.535
198.494
198.473
198.5
198.526
198.505
198.468
198.473
198.509
198.515
198.48
198.457
198.483
198.509
198.483
198.441
198.447
198.482
198.479
198.432
198.409
198.436
198.456
198.417
198.368
198.373
198.405
198.388
198.328
198.294
198.312
198.322
198.27
198.206
198.197
198.214
198.177
198.094
198.043
198.044
198.029
197.943
197.848
197.802
197.781
197.712
197.59
197.49
197.428
197.358
197.213
197.041
196.914
196.815
196.651
196.389
196.145
195.975
195.801
195.445
195.002
194.674
194.387
193.887
193.144
192.361
191.249
189.123
184.634
172.291
129.195
57.3349
15.8679
3.97345
0.950667
0.224662
0.0529611
0.0124781
0.00293956
0.000692406
0.000163078
3.84049e-05
9.04358e-06
2.1294e-06
5.01342e-07
1.18025e-07
2.77839e-08
6.54016e-09
1.54022e-09
3.62843e-10
8.59608e-11
1.88019e-11
4.62098e-12
4.20103e-13
1.74731e-12
3.11682e-12
6.12193e-13
4.71575e-13
8.9071e-13
9.86462e-13
1.94582e-12
2.97487e-12
3.07218e-12
2.24007e-12
3.60982e-12
2.69941e-12
6.61213e-12
5.67786e-12
2.43688e-12
2.39715e-12
2.66568e-12
2.375e-12
6.245e-14
1.82549e-12
4.00789e-13
8.12635e-13
2.18509e-13
2.41416e-13
7.0768e-13
2.78047e-12
2.91199e-12
5.42246e-12
1.19507e-12
3.92898e-12
1.64949e-12
2.38128e-13
1.53695e-12
2.13316e-12
8.46536e-14
3.35599e-12
1.56185e-12
3.38542e-12
4.19039e-14
9.45974e-13
1.07435e-12
9.46551e-13
7.24595e-13
2.95591e-12
2.8595e-12
2.44557e-12
1.63328e-12
8.22655e-14
4.2896e-13
1.04424e-12
7.36359e-13
1.34659e-12
4.64657e-13
6.04034e-13
1.41184e-12
2.87191e-12
4.92291e-12
5.52945e-12
5.55337e-12
5.49233e-12
6.38608e-12
8.74964e-13
3.21644e-12
2.83531e-13
1.16989e-12
1.31935e-12
1.59797e-12
2.53725e-12
6.82089e-13
6.85583e-13
6.4574e-13
3.73464e-13
4.93267e-12
2.21573e-12
2.1447e-12
1.4989e-12
3.60348e-12
1.73199e-12
2.44253e-12
2.40241e-12
8.41445e-13
6.2123e-12
2.23331e-12
2.69214e-12
5.38281e-13
4.9715e-12
2.13674e-12
3.56535e-12
1.04376e-12
7.32524e-13
2.23426e-12
5.24297e-13
7.04081e-14
6.73922e-13
4.96197e-13
4.09482e-13
2.56259e-12
1.53069e-12
1.86525e-12
3.7136e-13
1.23318e-12
3.42804e-12
1.48878e-12
1.83679e-13
2.38275e-12
1.27584e-13
5.11659e-12
1.8495e-12
4.84251e-12
5.47572e-12
7.03265e-12
3.4859e-12
4.46614e-12
8.91791e-13
1.21256e-12
2.17792e-12
2.03043e-12
1.88595e-12
3.55552e-12
6.6651e-13
2.86416e-13
3.67046e-12
8.98153e-13
2.62939e-12
4.27233e-13
2.51376e-12
8.82129e-13
2.38266e-12
7.66739e-13
8.6209e-13
3.44903e-12
2.6173e-12
4.47439e-14
3.73752e-12
8.59898e-13
4.46607e-12
7.66964e-13
9.56236e-14
5.90121e-13
1.58796e-12
2.81284e-12
5.17088e-13
4.28205e-12
1.52101e-12
4.60952e-13
5.52354e-13
9.30497e-13
4.26217e-12
1.37334e-12
2.35463e-13
4.16197e-13
1.65649e-12
8.30649e-13
2.34181e-12
7.44104e-13
6.87022e-12
8.52347e-13
1.73505e-12
1.38685e-12
1.30068e-12
2.17301e-12
1.72671e-12
2.34571e-12
5.36938e-12
3.03709e-12
5.07517e-12
6.55723e-12
6.27593e-12
4.49786e-12
4.43401e-12
4.48118e-13
1.75468e-13
5.02276e-12
4.94195e-12
3.84928e-12
4.81098e-12
3.56325e-12
1.21238e-12
5.90166e-13
1.05155e-12
9.3789e-14
2.91803e-12
4.06502e-12
3.32888e-12
3.28625e-12
5.01252e-12
5.00146e-12
2.8201e-12
1.32226e-12
2.92807e-12
2.78889e-12
4.54044e-12
4.65588e-12
8.2601e-12
7.18471e-12
1.01532e-11
7.52799e-12
8.59494e-12
7.87833e-12
1.07472e-11
1.2639e-11
1.22644e-11
9.00011e-12
8.52846e-12
7.58349e-12
4.76184e-12
3.71129e-12
1.37375e-12
5.19766e-13
2.31625e-12
4.42964e-12
4.91724e-12
3.53419e-12
3.66531e-12
5.85233e-12
4.26213e-12
3.72724e-12
4.54905e-14
2.49701e-12
5.50006e-12
4.61797e-12
5.36562e-12
2.55328e-12
4.55098e-13
1.61976e-12
8.691e-13
5.10436e-14
2.33149e-13
8.48029e-13
2.9801e-13
9.8986e-13
3.29591e-13
1.73208e-12
2.42202e-13
1.9534e-12
4.24508e-12
1.63688e-12
1.12308e-13
3.66642e-12
3.15197e-12
6.65495e-13
4.55094e-12
3.07559e-12
3.11421e-12
1.66478e-12
1.78626e-12
7.71669e-13
2.98921e-12
2.66136e-12
1.37536e-12
1.11237e-12
1.29637e-12
3.4662e-12
4.94424e-13
2.08174e-12
1.74839e-12
2.90303e-12
6.37993e-12
8.3939e-12
9.6472e-12
8.41869e-12
6.68841e-12
5.96042e-12
8.65868e-12
5.92872e-12
6.39065e-12
7.63703e-12
3.75353e-12
5.90381e-12
5.27256e-12
1.74551e-12
2.3905e-12
5.72612e-12
3.97925e-12
5.49772e-12
3.91604e-12
2.68991e-12
2.58225e-12
5.60793e-13
1.63434e-12
1.40927e-13
1.34937e-12
9.33939e-13
4.04769e-13
4.42059e-13
1.68818e-13
1.11399e-13
1.34418e-12
1.93248e-12
7.52188e-14
7.04784e-13
1.73915e-12
3.73904e-12
5.59427e-12
1.29244e-13
3.06495e-12
2.3351e-12
7.76926e-14
1.91682e-12
1.05603e-12
2.89055e-12
3.74732e-12
3.85963e-12
6.12586e-12
2.46144e-12
3.76016e-12
1.92156e-12
1.29378e-12
1.40877e-12
2.34104e-13
3.18444e-12
3.60766e-12
3.4899e-12
2.40335e-12
5.45234e-12
2.41326e-12
4.32525e-12
4.15658e-12
5.14885e-12
6.66131e-12
9.74138e-12
8.18349e-12
1.11333e-11
9.47752e-12
1.17289e-11
1.25168e-11
1.39453e-11
1.37349e-11
1.32602e-11
1.32696e-11
1.22522e-11
1.14019e-11
1.27255e-11
1.28041e-11
1.03941e-11
1.31953e-11
1.4036e-11
1.53451e-11
1.51132e-11
1.67413e-11
1.5466e-11
1.87087e-11
1.65776e-11
2.16699e-11
1.84691e-11
2.06116e-11
1.87705e-11
)
;

boundaryField
{
    sides
    {
        type            calculated;
        value           nonuniform List<scalar> 2(1.87705e-11 1.34741e-11);
    }
    empty
    {
        type            empty;
    }
}


// ************************************************************************* //
