/*--------------------------------*- C++ -*----------------------------------*\
| =========                 |                                                 |
| \\      /  F ield         | OpenFOAM: The Open Source CFD Toolbox           |
|  \\    /   O peration     | Version:  4.1                                   |
|   \\  /    A nd           | Web:      www.OpenFOAM.org                      |
|    \\/     M anipulation  |                                                 |
\*---------------------------------------------------------------------------*/
FoamFile
{
    version     2.0;
    format      ascii;
    class       volScalarField;
    location    "0.0024";
    object      p;
}
// * * * * * * * * * * * * * * * * * * * * * * * * * * * * * * * * * * * * * //

dimensions      [1 -1 -2 0 0 0 0];

internalField   nonuniform List<scalar> 
1000
(
100000
100000
100000
100000
100000
100000
100000
100000
100000
100000
100000
100000
100000
100000
100000
100000
100000
100000
100000
100000
100000
100000
100000
100000
100000
100000
100000
100000
100000
100000
100000
100000
100000
100000
100000
100000
100000
100000
100000
100000
100000
100000
100000
100000
100000
100000
100000
100000
100000
100000
100000
100000
100000
100000
100000
100000
100000
100000
100000
100000
100000
100000
100000
100000
100000
100000
100000
100000
100000
100000
100000
100000
100000
100000
100000
100000
100000
100000
100000
100000
100000
100000
100000
100000
100000
100000
100000
100000
100000
100000
100000
100000
100000
100000
100000
100000
100000
100000
100000
100000
100000
100000
100000
100000
100000
100000
100000
100000
100000
100000
100000
100000
100000
100000
100000
100000
100000
100000
100000
100000
100000
100000
100000
100000
100000
100000
100000
100000
100000
100000
100000
100000
100000
100000
100000
100000
100000
100000
100000
100000
100000
100000
100000
100000
100000
100000
100000
100000
100000
100000
100000
100000
100000
100000
100000
100000
100000
100000
100000
100000
100000
100000
100000
100000
100000
100000
100000
100000
100000
100000
100000
100000
100000
100000
100000
100000
100000
100000
100000
100000
100000
100000
100000
100000
100000
100000
100000
100000
100000
100000
100000
100000
100000
100000
100000
100000
100000
100000
100000
100000
100000
100000
100000
100000
100000
100000
100000
100000
100000
100000
100000
100000
100000
100000
100000
100000
100000
100000
100000
100000
100000
100000
100000
100000
100000
100000
100000
100000
100000
100000
100000
100000
100000
100000
100000
100000
100000
100000
100000
100000
100000
100000
100000
100000
100000
100000
100000
100000
100000
100000
100000
100000
100000
100000
100000
100000
100000
100000
100000
100000
100000
100000
100000
100000
100000
100000
100000
100000
100000
100000
100000
100000
100000
100000
100000
100000
100000
100000
100000
100000
100000
100000
100000
100000
100000
100000
100000
100000
100000
100000
100000
100000
100000
100000
100000
100000
100000
100000
100000
100000
100000
100000
100000
100000
100000
100000
100000
100000
100000
100000
100000
100000
100000
100000
100000
100000
100000
100000
100000
100000
100000
100000
100000
100000
100000
100000
100000
100000
100000
100000
100000
100000
100000
100000
100000
100000
100000
100000
100000
100000
100000
100000
100000
100000
100000
100000
100000
100000
100000
100000
100000
100000
100000
100000
100000
100000
100000
100000
100000
100000
100000
100000
100000
100000
100000
100000
100000
100000
100000
100000
100000
100000
100000
100000
100000
100000
100000
100000
100000
100000
100000
99999.9
99999.8
99999.7
99999.3
99998.7
99997.6
99995.5
99991.7
99985
99973.5
99954
99922
99870.7
99790.9
99670.2
99493.6
99244.5
98907.1
98472.9
97949
97348
96679
95950
95169.9
94348.1
93492.8
92611.6
91711
90796
89871
88939.4
88003.8
87066.4
86129
85193
84259.6
83329.7
82404.2
81483.6
80568.7
79659.8
78757.4
77861.8
76973.5
76092.6
75219.5
74354.2
73497.2
72648.5
71808.4
70977
70154.4
69340.9
68536.6
67741.7
66956.3
66180.6
65414.8
64659
63913.5
63178.5
62454.2
61740.8
61038.7
60348.1
59669.3
59002.7
58348.7
57707.8
57080.3
56466.9
55868.2
55284.6
54717.2
54166.3
53633.5
53118.4
52624.2
52149
51697.5
51267.4
50862.9
50483.4
50130.4
49806.8
49511.2
49246.5
49012.5
48810.5
48638.4
48495.9
48383.8
48296.4
48232.9
48188.6
48162.6
48147.9
48141.7
48141.3
48141.6
48142.4
48144.4
48148.5
48154.2
48162.8
48171
48178
48183
48186.4
48188.5
48190
48190.8
48191.2
48191.4
48191.8
48192.1
48192.4
48192.5
48192.5
48192.5
48192.5
48192.5
48192.5
48192.5
48192.4
48193.2
48193.6
48193.7
48193.9
48194
48194.1
48194.1
48194.3
48194.4
48194.4
48194.4
48194.4
48194.3
48194.5
48194.6
48194.3
48194.6
48195.3
48195.4
48195.4
48195.5
48195.5
48195.4
48195.4
48195.4
48195.4
48195.5
48195.5
48195.1
48195
48195.3
48195.3
48195.2
48195.3
48195.4
48196.2
48198.4
48205.8
48209
48189.4
48189.2
48182.3
48188.5
48203.3
48205.1
48192.5
48187.4
48199.3
48207.4
48196.9
48184.3
48190
48207.1
48206
48186.9
48183.1
48199.7
48208.4
48197.9
48183.2
48187.8
48204.7
48205.7
48187.6
48181.9
48197.4
48207.2
48194
48179.3
48185.7
48204
48202.1
48180.6
48176.8
48195
48203.4
48185.6
48171.7
48180.6
48198.3
48193.4
48169.7
48166.2
48183.6
48191.7
48171.3
48156.2
48162.5
48180.5
48172.1
48144.3
48140.1
48156
48163.6
48135.9
48120.8
48121.2
48134.5
48126.2
48093.3
48085.8
48086.6
48093.4
48058
48030.3
48023.1
48028.6
48017.1
47952.2
47929.7
47923.7
47932.8
47852.8
47778.3
47756.3
47757.4
47735.6
47550.6
47461.3
47338.8
47163
46719.8
45115.1
39572.3
29637.1
26312.3
25324.5
25077.3
25018.3
25004.3
25001
25000.2
25000.1
25000
25000
25000
25000
25000
25000
25000
25000
25000
25000
25000
25000
25000
25000
25000
25000
25000
25000
25000
25000
25000
25000
25000
25000
25000
25000
25000
25000
25000
25000
25000
25000
25000
25000
25000
25000
25000
25000
25000
25000
25000
25000
25000
25000
25000
25000
25000
25000
25000
25000
25000
25000
25000
25000
25000
25000
25000
25000
25000
25000
25000
25000
25000
25000
25000
25000
25000
25000
25000
25000
25000
25000
25000
25000
25000
25000
25000
25000
25000
25000
25000
25000
25000
25000
25000
25000
25000
25000
25000
25000
25000
25000
25000
25000
25000
25000
25000
25000
25000
25000
25000
25000
25000
25000
25000
25000
25000
25000
25000
25000
25000
25000
25000
25000
25000
25000
25000
25000
25000
25000
25000
25000
25000
25000
25000
25000
25000
25000
25000
25000
25000
25000
25000
25000
25000
25000
25000
25000
25000
25000
25000
25000
25000
25000
25000
25000
25000
25000
25000
25000
25000
25000
25000
25000
25000
25000
25000
25000
25000
25000
25000
25000
25000
25000
25000
25000
25000
25000
25000
25000
25000
25000
25000
25000
25000
25000
25000
25000
25000
25000
25000
25000
25000
25000
25000
25000
25000
25000
25000
25000
25000
25000
25000
25000
25000
25000
25000
25000
25000
25000
25000
25000
25000
25000
25000
25000
25000
25000
25000
25000
25000
25000
25000
25000
25000
25000
25000
25000
25000
25000
25000
25000
25000
25000
25000
25000
25000
25000
25000
25000
25000
25000
25000
25000
25000
25000
25000
25000
25000
25000
25000
25000
25000
25000
25000
25000
25000
25000
25000
25000
25000
25000
25000
25000
25000
25000
25000
25000
25000
25000
25000
25000
25000
25000
25000
25000
25000
25000
25000
25000
25000
25000
25000
25000
25000
25000
25000
25000
25000
25000
25000
25000
25000
25000
25000
25000
25000
25000
25000
25000
25000
25000
25000
25000
25000
25000
25000
25000
25000
25000
25000
25000
25000
25000
25000
25000
25000
25000
25000
25000
25000
25000
25000
25000
25000
25000
25000
25000
25000
25000
25000
25000
25000
25000
25000
25000
25000
25000
25000
25000
25000
25000
25000
25000
25000
25000
25000
25000
25000
25000
25000
25000
25000
25000
25000
25000
25000
25000
25000
25000
25000
25000
25000
25000
25000
25000
25000
25000
25000
25000
25000
)
;

boundaryField
{
    sides
    {
        type            zeroGradient;
    }
    empty
    {
        type            empty;
    }
}


// ************************************************************************* //
