/*--------------------------------*- C++ -*----------------------------------*\
| =========                 |                                                 |
| \\      /  F ield         | OpenFOAM: The Open Source CFD Toolbox           |
|  \\    /   O peration     | Version:  4.1                                   |
|   \\  /    A nd           | Web:      www.OpenFOAM.org                      |
|    \\/     M anipulation  |                                                 |
\*---------------------------------------------------------------------------*/
FoamFile
{
    version     2.0;
    format      ascii;
    class       surfaceScalarField;
    location    "0.0024";
    object      phi;
}
// * * * * * * * * * * * * * * * * * * * * * * * * * * * * * * * * * * * * * //

dimensions      [1 0 -1 0 0 0 0];

internalField   nonuniform List<scalar> 
999
(
-5.21112e-11
-5.83142e-11
-5.85274e-11
-5.64953e-11
-5.65805e-11
-5.62252e-11
-6.25278e-11
-6.97327e-11
-7.60849e-11
-7.20206e-11
-6.93561e-11
-6.17462e-11
-5.97353e-11
-5.32125e-11
-4.85443e-11
-5.07967e-11
-5.23244e-11
-5.44134e-11
-4.79687e-11
-4.84448e-11
-4.91838e-11
-4.47073e-11
-4.44018e-11
-3.48663e-11
-3.18039e-11
-3.54206e-11
-3.42766e-11
-3.48521e-11
-3.32889e-11
-2.89475e-11
-2.89972e-11
-2.73488e-11
-2.40945e-11
-2.45706e-11
-2.10392e-11
-2.07905e-11
-2.48548e-11
-3.16405e-11
-3.58753e-11
-4.1851e-11
-4.23057e-11
-4.33218e-11
-3.89448e-11
-3.29408e-11
-2.47553e-11
-1.67191e-11
-1.40545e-11
-9.01679e-12
-2.19558e-12
-6.65779e-12
-1.39195e-11
-1.42464e-11
-8.2494e-12
-3.71614e-12
-4.54747e-12
-1.45235e-11
-2.28226e-11
-1.78773e-11
-1.68825e-11
-1.34861e-11
-6.0183e-12
-2.98428e-13
-1.03029e-12
4.54747e-13
2.63611e-12
1.01323e-11
1.66835e-11
1.95186e-11
2.3384e-11
2.54374e-11
3.06741e-11
2.06484e-11
1.88578e-11
2.07123e-11
1.59091e-11
1.56248e-11
1.73515e-11
1.80194e-11
1.96323e-11
1.97034e-11
1.85381e-11
2.1295e-11
2.07407e-11
1.54543e-11
1.2399e-11
1.72449e-11
2.47695e-11
2.04068e-11
2.05347e-11
2.63753e-11
2.68585e-11
2.99352e-11
2.47766e-11
2.62972e-11
2.61124e-11
2.65885e-11
2.72564e-11
2.46274e-11
2.65601e-11
3.42766e-11
2.80664e-11
2.24958e-11
1.63283e-11
1.15392e-11
5.98277e-12
7.48202e-12
1.66409e-11
2.25526e-11
2.57074e-11
2.37961e-11
1.84031e-11
1.66551e-11
2.13873e-11
2.16289e-11
1.69891e-11
1.73443e-11
2.31779e-11
2.77893e-11
3.23652e-11
2.80522e-11
2.2915e-11
1.66622e-11
1.07363e-11
9.6847e-12
2.54374e-12
9.9476e-14
8.32756e-12
7.47491e-12
8.27072e-12
1.18305e-11
1.2129e-11
7.87281e-12
3.9222e-12
4.448e-12
1.20366e-11
1.05516e-11
6.57963e-12
4.11404e-12
1.30029e-12
-7.31859e-13
5.08038e-12
8.59757e-13
-2.91323e-12
-3.48166e-12
-6.0254e-12
-1.35714e-12
-4.83169e-13
5.28644e-12
7.38964e-12
1.43388e-11
1.30171e-11
1.3145e-11
9.19442e-12
5.25091e-12
4.78906e-12
6.87095e-12
1.03739e-11
1.16387e-11
1.09424e-11
1.5028e-11
1.09637e-11
8.98837e-12
6.57963e-12
2.28084e-12
2.58638e-12
4.1851e-12
-3.01981e-12
1.23634e-12
7.22622e-12
5.79803e-12
5.08038e-12
-3.55271e-13
-5.05196e-12
-1.11982e-11
-7.65965e-12
-7.39675e-12
-2.42295e-12
-5.7625e-12
-5.91172e-12
-3.55982e-12
1.93268e-12
1.00684e-11
1.87441e-11
2.16573e-11
2.6489e-11
2.71854e-11
2.45635e-11
2.75975e-11
2.83009e-11
2.8777e-11
2.83435e-11
3.23936e-11
2.36895e-11
2.26308e-11
2.32063e-11
1.85878e-11
1.58877e-11
1.26974e-11
1.37774e-11
1.38485e-11
9.94049e-12
5.92593e-12
6.44462e-12
1.24061e-11
1.7188e-11
1.81615e-11
2.33982e-11
2.26521e-11
2.22471e-11
2.17213e-11
1.62288e-11
1.11768e-11
7.92255e-12
1.05871e-12
3.23297e-12
8.98837e-12
1.4353e-11
1.38343e-11
1.40119e-11
1.328e-11
1.85949e-11
1.4623e-11
1.301e-11
9.96891e-12
5.94724e-12
8.36309e-12
2.55795e-12
1.59659e-11
9.17311e-12
3.87246e-12
9.62785e-12
1.57172e-11
1.18021e-11
1.14397e-11
7.8515e-12
1.26192e-11
4.61853e-12
-1.52767e-12
2.4869e-12
8.75389e-12
3.54561e-12
7.16227e-12
1.43459e-11
7.93676e-12
1.39835e-11
7.90834e-12
6.51568e-12
2.23821e-12
5.68434e-12
6.20304e-12
8.31335e-13
3.12639e-12
3.86535e-12
-2.52953e-12
1.56319e-12
5.95435e-12
1.35003e-13
1.14397e-12
-1.51346e-12
-2.55085e-12
5.27933e-12
8.52651e-14
-6.60805e-13
-3.0056e-12
-3.63798e-12
-2.39453e-12
3.64508e-12
6.45883e-12
-2.45848e-12
-1.27187e-12
6.52278e-12
2.15294e-12
1.71241e-12
-2.21689e-12
2.21689e-12
3.10507e-12
5.52092e-12
1.06937e-11
3.43903e-12
-2.94875e-12
-8.10729e-12
-9.13047e-12
-1.64135e-12
2.50822e-12
1.03739e-11
3.73035e-12
2.359e-12
8.2423e-12
1.84741e-12
4.14957e-12
8.5052e-12
1.56177e-11
2.15437e-11
2.17426e-11
2.66667e-11
2.3455e-11
2.40092e-11
2.84359e-11
2.56293e-11
3.08802e-11
3.05462e-11
2.94733e-11
2.46274e-11
1.90212e-11
1.57101e-11
1.64704e-11
1.87939e-11
2.08544e-11
1.86731e-11
1.7998e-11
1.57883e-11
1.031e-11
9.46443e-12
6.26699e-12
3.85114e-12
1.13616e-11
1.40403e-11
2.0222e-11
1.27685e-11
9.82681e-12
7.48202e-12
5.76961e-12
4.448e-12
6.09646e-12
8.27782e-12
8.12861e-12
4.94538e-12
-1.05871e-12
-1.72662e-12
-4.68248e-12
-2.33058e-12
-4.03588e-12
-1.24558e-11
-1.22498e-11
-1.27827e-11
-1.06652e-11
-4.95248e-12
-4.59721e-12
-4.41958e-12
-3.62377e-12
1.9682e-12
2.21689e-12
4.40536e-13
1.07292e-12
-3.69482e-13
-8.07177e-12
-8.36309e-12
-8.6402e-12
-2.27374e-12
-6.39488e-14
1.99663e-12
4.33431e-12
-2.46558e-12
-2.02505e-12
6.53699e-13
4.41958e-12
8.08598e-12
3.04112e-12
2.59348e-12
7.84439e-12
1.97318e-11
5.17204e-11
1.35628e-10
3.53928e-10
9.20522e-10
2.34628e-09
5.87811e-09
1.45236e-08
3.54358e-08
8.53968e-08
2.03285e-07
4.77985e-07
1.10995e-06
2.54497e-06
5.76033e-06
1.28672e-05
2.83579e-05
6.16435e-05
0.000132126
0.000279146
0.000581116
0.00119156
0.00240554
0.00477929
0.0093403
0.0179465
0.0338827
0.0628182
0.11429
0.203904
0.35643
0.609902
1.02057
1.66814
2.66008
4.13261
6.24518
9.16291
13.0177
17.8172
23.4211
29.7124
36.6058
44.0089
51.8248
59.9604
68.3321
76.868
85.5087
94.206
102.921
111.624
120.291
128.901
137.441
145.896
154.258
162.518
170.67
178.709
186.629
194.427
202.101
209.647
217.065
224.351
231.506
238.527
245.414
252.167
258.784
265.266
271.612
277.822
283.896
289.834
295.636
301.301
306.831
312.224
317.481
322.601
327.585
332.433
337.144
341.718
346.155
350.454
354.614
358.636
362.517
366.256
369.857
373.305
376.627
379.766
382.812
385.631
388.376
390.917
393.267
395.584
397.542
399.525
401.245
402.719
404.225
405.38
406.372
407.374
408.047
408.565
409.109
409.422
409.576
409.757
409.864
409.885
409.856
409.846
409.848
409.84
409.807
409.783
409.741
409.698
409.651
409.621
409.603
409.579
409.562
409.555
409.55
409.536
409.524
409.518
409.512
409.498
409.483
409.472
409.461
409.443
409.426
409.415
409.394
409.387
409.392
409.38
409.362
409.347
409.332
409.31
409.291
409.277
409.26
409.236
409.206
409.175
409.157
409.149
409.111
409.059
409.048
409.024
409.008
408.987
408.947
408.871
408.802
408.756
408.727
408.706
408.665
408.528
408.341
408.207
408.131
408.102
408.149
408.495
408.737
408.766
408.617
406.317
393.852
364.434
338.129
317.267
302.304
291.504
284.04
279.102
276.371
275.054
274.162
273.311
273.046
273.407
273.516
273.16
272.93
273.126
273.484
273.48
273.033
272.968
273.384
273.54
273.274
272.982
273.122
273.514
273.487
273.003
272.941
273.418
273.557
273.155
272.912
273.132
273.521
273.418
272.916
272.881
273.408
273.537
273.017
272.815
273.009
273.41
273.304
272.774
272.741
273.243
273.397
272.744
272.573
272.763
273.205
272.988
272.429
272.376
272.685
272.929
272.252
272.076
272.13
272.451
272.334
271.515
271.469
271.615
272.025
270.857
270.38
270.451
270.93
270.806
268.762
268.507
268.776
269.693
267.115
265.123
264.407
263.858
261.976
255.362
223.724
92.2457
30.1171
7.77802
1.87573
0.444062
0.104686
0.0246648
0.0058106
0.00136877
0.000322398
7.59296e-05
1.78809e-05
4.21048e-06
9.91367e-07
2.33399e-07
5.49452e-08
1.29342e-08
3.04493e-09
7.17227e-10
1.69003e-10
3.95453e-11
8.89244e-12
1.4122e-12
-8.2423e-13
-2.20801e-12
-1.54188e-12
-4.61853e-14
-2.52243e-13
9.41469e-14
1.10312e-12
2.24354e-12
2.86349e-12
2.05702e-12
2.6894e-12
3.07487e-12
3.65041e-12
5.21005e-12
3.83338e-12
1.85985e-12
2.12985e-12
2.51354e-12
9.18376e-13
6.66134e-13
1.01963e-12
4.9738e-13
5.34683e-13
-2.66454e-14
1.98952e-13
-8.26006e-13
-2.5544e-12
-3.84937e-12
-2.66986e-12
-2.30393e-12
-2.36611e-12
-7.8515e-13
-8.43769e-13
3.14415e-13
7.78044e-13
1.52056e-12
8.75744e-13
7.28306e-13
1.56142e-12
-4.12115e-13
-7.86926e-13
-1.20792e-13
9.11271e-13
1.59694e-12
2.63611e-12
1.98952e-12
5.15143e-13
-9.18376e-13
-6.92779e-14
1.68754e-13
9.85878e-13
-3.606e-13
-8.41993e-13
-3.74811e-13
-8.63309e-13
-2.06057e-12
-3.13882e-12
-4.82991e-12
-4.43023e-12
-5.24025e-12
-4.76241e-12
-3.54206e-12
-1.50457e-12
-1.81188e-12
-4.86722e-13
-1.31095e-12
2.20268e-13
1.52589e-12
1.59517e-12
6.02185e-13
6.69687e-13
8.34888e-14
1.82609e-12
3.47278e-12
1.60583e-12
4.56524e-13
6.76792e-13
2.76223e-12
1.61826e-12
8.88178e-15
-1.20792e-12
-3.3431e-12
-3.89733e-12
-1.95044e-12
-1.26299e-12
-2.68408e-12
-3.19922e-12
-2.24709e-12
-1.17417e-12
1.08358e-13
7.40741e-13
6.55476e-13
-2.39808e-13
-2.55795e-13
-6.39488e-13
-2.13163e-14
-1.01963e-12
-1.61293e-12
-1.7053e-12
-8.50875e-13
-6.46594e-13
8.75744e-13
9.09495e-13
-5.59552e-13
-1.04272e-12
-9.61009e-13
-2.52065e-12
-2.9754e-12
-2.88836e-12
-4.31122e-12
-5.61506e-12
-4.67359e-12
-3.16724e-12
-1.81366e-12
-8.52651e-14
-1.72484e-12
-1.63247e-12
-4.26326e-14
2.34124e-12
1.78524e-12
4.20997e-13
-1.26477e-12
-2.26841e-12
9.37916e-13
1.16884e-12
-9.69891e-13
-7.79821e-13
-5.18696e-13
-1.7284e-12
-4.99156e-13
9.02389e-13
5.71987e-13
-1.42109e-12
-1.78524e-12
-1.71241e-12
-2.49578e-12
-1.78524e-12
2.94875e-13
3.03757e-13
7.72715e-13
-3.85469e-13
-1.66978e-12
-1.90958e-12
-1.35358e-12
5.61329e-13
-5.43565e-13
-5.38236e-13
-2.42828e-12
-2.40874e-12
-6.16396e-13
1.26121e-13
6.96332e-13
5.06262e-13
6.82121e-13
1.2168e-12
3.63265e-12
2.34657e-12
4.44089e-13
1.56675e-12
-2.13163e-14
5.29354e-13
1.75682e-12
1.62714e-12
3.48166e-12
3.65219e-12
3.67351e-12
4.86544e-12
5.73941e-12
4.65583e-12
4.19753e-12
1.86517e-12
8.70415e-14
-1.93978e-12
-4.67892e-12
-3.7268e-12
-3.90976e-12
-3.47988e-12
-2.10854e-12
-8.9706e-13
-6.05738e-13
-4.7784e-13
1.30917e-12
3.22231e-12
3.3733e-12
2.49756e-12
3.96305e-12
4.5528e-12
3.45679e-12
1.5028e-12
-4.70735e-13
-2.83862e-12
-3.39995e-12
-3.7037e-12
-5.83178e-12
-6.8745e-12
-7.34168e-12
-7.53353e-12
-7.32037e-12
-6.78391e-12
-8.16236e-12
-1.04858e-11
-1.08233e-11
-9.21219e-12
-7.64722e-12
-6.81766e-12
-5.47651e-12
-3.74634e-12
-2.04992e-12
-5.15143e-13
1.49214e-12
2.73914e-12
3.99147e-12
3.93641e-12
2.83151e-12
4.1922e-12
4.52616e-12
3.7641e-12
1.41398e-12
1.2097e-12
3.2756e-12
4.26148e-12
4.74287e-12
3.26139e-12
1.12976e-12
1.00364e-12
1.21325e-12
3.12639e-13
-4.44089e-14
-6.46594e-13
-1.38556e-13
4.12115e-13
6.50147e-13
-6.2883e-13
-5.59552e-13
8.50875e-13
2.73381e-12
2.66986e-12
7.14095e-13
1.74083e-12
3.05889e-12
1.55964e-12
2.1565e-12
3.57403e-12
2.46025e-12
2.27551e-12
1.55786e-12
9.73444e-13
1.61293e-12
2.62013e-12
1.76748e-12
1.03206e-12
-6.39488e-14
8.63309e-13
1.36424e-12
6.25278e-13
1.85985e-12
1.88471e-12
3.97549e-12
6.26876e-12
8.36486e-12
7.39142e-12
6.58495e-12
5.20295e-12
6.67022e-12
6.5068e-12
5.139e-12
6.20659e-12
5.06617e-12
4.42135e-12
4.53682e-12
3.16547e-12
1.76925e-12
3.54383e-12
4.1851e-12
4.36984e-12
3.82805e-12
2.74092e-12
2.55795e-12
1.23457e-12
9.09495e-13
6.96332e-13
5.20473e-13
8.40217e-13
3.32179e-13
3.37508e-14
4.44089e-14
-4.61853e-14
-8.01137e-13
3.05533e-13
9.59233e-13
2.73559e-13
1.00187e-12
2.34657e-12
4.30589e-12
2.23643e-12
1.13864e-12
4.31655e-13
-1.11022e-12
-1.06937e-12
-1.08713e-12
7.01661e-13
2.63611e-12
3.67706e-12
4.06075e-12
4.03233e-12
2.46558e-12
9.45022e-13
-3.97904e-13
1.45839e-12
3.78364e-13
1.5099e-12
2.78355e-12
2.77112e-12
2.93454e-12
3.08553e-12
3.82272e-12
2.53486e-12
4.20108e-12
3.68239e-12
5.17986e-12
7.40208e-12
7.89235e-12
8.35065e-12
8.64198e-12
9.64917e-12
1.03153e-11
1.16387e-11
1.22444e-11
1.15001e-11
1.16351e-11
1.08216e-11
1.07274e-11
1.01146e-11
1.1255e-11
1.02194e-11
1.00506e-11
1.20135e-11
1.2534e-11
1.35554e-11
1.35767e-11
1.37117e-11
1.52163e-11
1.54152e-11
1.6394e-11
1.76712e-11
1.66622e-11
1.74527e-11
)
;

boundaryField
{
    sides
    {
        type            calculated;
        value           nonuniform List<scalar> 2(1.63066e-11 4.67877e-11);
    }
    empty
    {
        type            empty;
        value           nonuniform 0();
    }
}


// ************************************************************************* //
