/*--------------------------------*- C++ -*----------------------------------*\
| =========                 |                                                 |
| \\      /  F ield         | OpenFOAM: The Open Source CFD Toolbox           |
|  \\    /   O peration     | Version:  4.1                                   |
|   \\  /    A nd           | Web:      www.OpenFOAM.org                      |
|    \\/     M anipulation  |                                                 |
\*---------------------------------------------------------------------------*/
FoamFile
{
    version     2.0;
    format      ascii;
    class       volScalarField;
    location    "0.0024";
    object      T;
}
// * * * * * * * * * * * * * * * * * * * * * * * * * * * * * * * * * * * * * //

dimensions      [0 0 0 1 0 0 0];

internalField   nonuniform List<scalar> 
1000
(
400
400
400
400
400
400
400
400
400
400
400
400
400
400
400
400
400
400
400
400
400
400
400
400
400
400
400
400
400
400
400
400
400
400
400
400
400
400
400
400
400
400
400
400
400
400
400
400
400
400
400
400
400
400
400
400
400
400
400
400
400
400
400
400
400
400
400
400
400
400
400
400
400
400
400
400
400
400
400
400
400
400
400
400
400
400
400
400
400
400
400
400
400
400
400
400
400
400
400
400
400
400
400
400
400
400
400
400
400
400
400
400
400
400
400
400
400
400
400
400
400
400
400
400
400
400
400
400
400
400
400
400
400
400
400
400
400
400
400
400
400
400
400
400
400
400
400
400
400
400
400
400
400
400
400
400
400
400
400
400
400
400
400
400
400
400
400
400
400
400
400
400
400
400
400
400
400
400
400
400
400
400
400
400
400
400
400
400
400
400
400
400
400
400
400
400
400
400
400
400
400
400
400
400
400
400
400
400
400
400
400
400
400
400
400
400
400
400
400
400
400
400
400
400
400
400
400
400
400
400
400
400
400
400
400
400
400
400
400
400
400
400
400
400
400
400
400
400
400
400
400
400
400
400
400
400
400
400
400
400
400
400
400
400
400
400
400
400
400
400
400
400
400
400
400
400
400
400
400
400
400
400
400
400
400
400
400
400
400
400
400
400
400
400
400
400
400
400
400
400
400
400
400
400
400
400
400
400
400
400
400
400
400
400
400
400
400
400
400
400
400
400
400
400
400
400
400
400
400
400
400
400
400
400
400
400
400
400
400
400
400
400
400
400
400
400
400
400
400
400
400
400
400
400
400
400
400
400
400
400
400
400
400
400
400
400
400
400
400
400
400
400
400
400
400
400
400
400
400
400
400
400
400
400
399.999
399.999
399.997
399.995
399.99
399.983
399.97
399.947
399.911
399.852
399.76
399.622
399.419
399.133
398.744
398.242
397.635
396.935
396.153
395.296
394.374
393.397
392.374
391.312
390.22
389.102
387.964
386.81
385.642
384.463
383.274
382.078
380.877
379.67
378.459
377.245
376.029
374.811
373.592
372.372
371.152
369.933
368.714
367.496
366.28
365.065
363.853
362.643
361.436
360.233
359.033
357.837
356.646
355.46
354.279
353.104
351.935
350.773
349.618
348.472
347.335
346.207
345.089
343.983
342.889
341.809
340.744
339.693
338.664
337.641
336.67
335.655
334.796
333.731
333.063
331.92
331.403
330.374
329.738
329.117
328.243
327.881
327.23
326.645
326.406
325.911
325.543
325.42
325.15
324.932
324.896
324.829
324.731
324.722
324.738
324.741
324.735
324.736
324.751
324.769
324.783
324.795
324.822
324.845
324.85
324.861
324.877
324.883
324.886
324.892
324.903
324.909
324.912
324.919
324.931
324.938
324.941
324.948
324.961
324.967
324.973
324.985
324.995
325.003
325.016
325.028
325.036
325.047
325.064
325.077
325.085
325.098
325.119
325.14
325.153
325.162
325.177
325.205
325.24
325.268
325.282
325.291
325.31
325.357
325.417
325.464
325.489
325.502
325.522
325.585
325.732
325.868
325.952
325.98
325.966
325.828
325.573
325.43
325.431
326.154
331.435
350.857
379.764
407.12
430.836
449.766
463.702
473.216
479.311
483.004
485.073
486.103
486.565
486.789
486.915
486.934
486.864
486.827
486.855
486.869
486.832
486.774
486.775
486.822
486.826
486.768
486.742
486.782
486.813
486.778
486.725
486.735
486.792
486.791
486.721
486.702
486.751
486.78
486.73
486.68
486.698
486.755
486.746
486.667
486.65
486.696
486.725
486.667
486.614
486.625
486.682
486.668
486.577
486.56
486.602
486.632
486.549
486.494
486.492
486.531
486.515
486.409
486.39
486.388
486.408
486.317
486.229
486.196
486.203
486.199
485.992
485.905
485.901
485.961
485.716
485.452
485.42
485.439
485.358
484.797
484.564
484.13
483.551
482.331
478.043
462.248
420.971
406.009
401.487
400.354
400.084
400.02
400.005
400.001
400
400
400
400
400
400
400
400
400
400
400
400
400
400
400
400
400
400
400
400
400
400
400
400
400
400
400
400
400
400
400
400
400
400
400
400
400
400
400
400
400
400
400
400
400
400
400
400
400
400
400
400
400
400
400
400
400
400
400
400
400
400
400
400
400
400
400
400
400
400
400
400
400
400
400
400
400
400
400
400
400
400
400
400
400
400
400
400
400
400
400
400
400
400
400
400
400
400
400
400
400
400
400
400
400
400
400
400
400
400
400
400
400
400
400
400
400
400
400
400
400
400
400
400
400
400
400
400
400
400
400
400
400
400
400
400
400
400
400
400
400
400
400
400
400
400
400
400
400
400
400
400
400
400
400
400
400
400
400
400
400
400
400
400
400
400
400
400
400
400
400
400
400
400
400
400
400
400
400
400
400
400
400
400
400
400
400
400
400
400
400
400
400
400
400
400
400
400
400
400
400
400
400
400
400
400
400
400
400
400
400
400
400
400
400
400
400
400
400
400
400
400
400
400
400
400
400
400
400
400
400
400
400
400
400
400
400
400
400
400
400
400
400
400
400
400
400
400
400
400
400
400
400
400
400
400
400
400
400
400
400
400
400
400
400
400
400
400
400
400
400
400
400
400
400
400
400
400
400
400
400
400
400
400
400
400
400
400
400
400
400
400
400
400
400
400
400
400
400
400
400
400
400
400
400
400
400
400
400
400
400
400
400
400
400
400
400
400
400
400
400
400
400
400
400
400
400
400
400
400
400
400
400
400
400
400
400
400
400
400
400
400
400
400
400
400
400
400
400
400
400
400
400
400
400
400
400
400
400
400
400
400
)
;

boundaryField
{
    sides
    {
        type            zeroGradient;
    }
    empty
    {
        type            empty;
    }
}


// ************************************************************************* //
