/*--------------------------------*- C++ -*----------------------------------*\
| =========                 |                                                 |
| \\      /  F ield         | OpenFOAM: The Open Source CFD Toolbox           |
|  \\    /   O peration     | Version:  4.1                                   |
|   \\  /    A nd           | Web:      www.OpenFOAM.org                      |
|    \\/     M anipulation  |                                                 |
\*---------------------------------------------------------------------------*/
FoamFile
{
    version     2.0;
    format      ascii;
    class       volVectorField;
    location    "0.0024";
    object      U;
}
// * * * * * * * * * * * * * * * * * * * * * * * * * * * * * * * * * * * * * //

dimensions      [0 1 -1 0 0 0 0];

internalField   nonuniform List<vector> 
1000
(
(-1.34741e-11 0 0)
(-1.57843e-11 0 0)
(-1.77204e-11 0 0)
(-1.6228e-11 0 0)
(-1.59263e-11 0 0)
(-1.62836e-11 0 0)
(-1.64351e-11 0 0)
(-1.95403e-11 0 0)
(-2.09184e-11 0 0)
(-2.22848e-11 0 0)
(-1.95757e-11 0 0)
(-1.94505e-11 0 0)
(-1.69309e-11 0 0)
(-1.68922e-11 0 0)
(-1.36641e-11 0 0)
(-1.52938e-11 0 0)
(-1.34815e-11 0 0)
(-1.6919e-11 0 0)
(-1.37505e-11 0 0)
(-1.44113e-11 0 0)
(-1.37039e-11 0 0)
(-1.39952e-11 0 0)
(-1.22522e-11 0 0)
(-1.27394e-11 0 0)
(-7.66678e-12 0 0)
(-1.1114e-11 0 0)
(-8.56415e-12 0 0)
(-1.147e-11 0 0)
(-9.29284e-12 0 0)
(-8.66191e-12 0 0)
(-8.58909e-12 0 0)
(-8.03282e-12 0 0)
(-7.72766e-12 0 0)
(-6.22593e-12 0 0)
(-8.37616e-12 0 0)
(-3.59404e-12 0 0)
(-7.91473e-12 0 0)
(-6.5258e-12 0 0)
(-1.18776e-11 0 0)
(-9.15957e-12 0 0)
(-1.40684e-11 0 0)
(-1.07567e-11 0 0)
(-1.41005e-11 0 0)
(-8.20907e-12 0 0)
(-1.01079e-11 0 0)
(-4.70377e-12 0 0)
(-4.37746e-12 0 0)
(-4.48368e-12 0 0)
(-3.03311e-13 0 0)
(-7.51551e-13 0 0)
(-3.51316e-12 0 0)
(-4.13613e-12 0 0)
(-3.61111e-12 0 0)
(-1.72395e-12 0 0)
(-6.02165e-14 0 0)
(-2.87737e-12 0 0)
(-5.12055e-12 0 0)
(-7.52717e-12 0 0)
(-3.16896e-12 0 0)
(-6.22491e-12 0 0)
(-2.11498e-12 0 0)
(-7.71278e-13 0 0)
(4.61331e-13 0 0)
(-8.52165e-13 0 0)
(9.7505e-13 0 0)
(9.498e-13 0 0)
(4.21632e-12 0 0)
(5.36862e-12 0 0)
(6.72319e-12 0 0)
(5.50856e-12 0 0)
(1.04321e-11 0 0)
(5.89472e-12 0 0)
(6.37917e-12 0 0)
(5.19441e-12 0 0)
(6.0747e-12 0 0)
(3.31993e-12 0 0)
(5.67563e-12 0 0)
(4.46838e-12 0 0)
(5.82114e-12 0 0)
(5.38773e-12 0 0)
(6.04762e-12 0 0)
(5.01022e-12 0 0)
(6.43678e-12 0 0)
(6.22526e-12 0 0)
(2.33913e-12 0 0)
(4.27872e-12 0 0)
(6.49165e-12 0 0)
(7.18865e-12 0 0)
(4.46762e-12 0 0)
(8.1837e-12 0 0)
(5.9038e-12 0 0)
(1.01389e-11 0 0)
(6.7552e-12 0 0)
(8.19195e-12 0 0)
(6.4392e-12 0 0)
(8.57831e-12 0 0)
(7.08703e-12 0 0)
(8.11021e-12 0 0)
(6.40083e-12 0 0)
(9.20215e-12 0 0)
(9.80071e-12 0 0)
(6.75776e-12 0 0)
(6.07446e-12 0 0)
(3.40385e-12 0 0)
(3.38179e-12 0 0)
(4.31443e-13 0 0)
(3.25058e-12 0 0)
(6.66986e-12 0 0)
(6.81439e-12 0 0)
(7.32262e-12 0 0)
(6.22262e-12 0 0)
(4.88275e-12 0 0)
(5.01797e-12 0 0)
(7.07112e-12 0 0)
(4.93121e-12 0 0)
(5.23541e-12 0 0)
(5.19233e-12 0 0)
(7.77816e-12 0 0)
(8.71214e-12 0 0)
(9.03709e-12 0 0)
(7.81729e-12 0 0)
(5.25184e-12 0 0)
(3.47191e-12 0 0)
(3.49219e-12 0 0)
(1.63138e-12 0 0)
(1.19387e-14 0 0)
(6.20645e-14 0 0)
(3.91593e-12 0 0)
(1.18843e-12 0 0)
(3.03523e-12 0 0)
(3.82105e-12 0 0)
(3.07591e-12 0 0)
(1.49057e-12 0 0)
(5.3759e-13 0 0)
(2.29237e-12 0 0)
(4.22103e-12 0 0)
(2.2138e-12 0 0)
(1.35862e-12 0 0)
(1.28723e-12 0 0)
(-7.82695e-13 0 0)
(5.06245e-13 0 0)
(2.15958e-12 0 0)
(-1.60608e-12 0 0)
(-1.68756e-13 0 0)
(-2.25984e-12 0 0)
(-8.13699e-13 0 0)
(9.83318e-15 0 0)
(-2.21823e-13 0 0)
(2.8674e-12 0 0)
(2.01209e-12 0 0)
(5.37988e-12 0 0)
(2.69552e-12 0 0)
(4.62308e-12 0 0)
(9.86578e-13 0 0)
(1.75032e-12 0 0)
(1.16876e-12 0 0)
(2.98888e-12 0 0)
(2.70139e-12 0 0)
(3.52169e-12 0 0)
(3.32738e-12 0 0)
(4.93427e-12 0 0)
(1.80547e-12 0 0)
(2.84535e-12 0 0)
(1.2928e-12 0 0)
(-8.32035e-14 0 0)
(1.84626e-12 0 0)
(8.28774e-14 0 0)
(-1.46195e-12 0 0)
(1.98106e-12 0 0)
(2.22024e-12 0 0)
(1.42515e-12 0 0)
(1.16856e-12 0 0)
(-1.25681e-12 0 0)
(-2.12199e-12 0 0)
(-3.37832e-12 0 0)
(-1.85011e-12 0 0)
(-1.82284e-12 0 0)
(1.10551e-13 0 0)
(-2.84059e-12 0 0)
(-1.00605e-12 0 0)
(-8.13951e-13 0 0)
(1.86478e-12 0 0)
(3.86064e-12 0 0)
(6.39187e-12 0 0)
(6.48758e-12 0 0)
(8.93597e-12 0 0)
(6.65484e-12 0 0)
(8.04832e-12 0 0)
(7.20407e-12 0 0)
(8.62739e-12 0 0)
(8.28526e-12 0 0)
(8.43605e-12 0 0)
(9.21234e-12 0 0)
(5.57972e-12 0 0)
(7.74459e-12 0 0)
(4.91087e-12 0 0)
(5.99512e-12 0 0)
(2.8164e-12 0 0)
(4.9603e-12 0 0)
(2.81571e-12 0 0)
(4.7817e-12 0 0)
(7.57902e-13 0 0)
(2.33777e-12 0 0)
(1.88753e-12 0 0)
(5.03415e-12 0 0)
(4.81221e-12 0 0)
(6.11477e-12 0 0)
(6.60628e-12 0 0)
(6.45806e-12 0 0)
(6.83317e-12 0 0)
(5.42686e-12 0 0)
(3.81387e-12 0 0)
(2.6174e-12 0 0)
(1.65582e-12 0 0)
(-9.81635e-13 0 0)
(2.92704e-12 0 0)
(1.95264e-12 0 0)
(6.02018e-12 0 0)
(2.50315e-12 0 0)
(5.02905e-12 0 0)
(3.10339e-12 0 0)
(6.96139e-12 0 0)
(1.6044e-12 0 0)
(6.38509e-12 0 0)
(-1.27228e-12 0 0)
(5.36814e-12 0 0)
(-1.45622e-12 0 0)
(3.42841e-12 0 0)
(4.63547e-12 0 0)
(1.16872e-12 0 0)
(1.11085e-12 0 0)
(4.3961e-12 0 0)
(4.71614e-12 0 0)
(1.88706e-12 0 0)
(4.22867e-12 0 0)
(9.22325e-13 0 0)
(5.53471e-12 0 0)
(-2.3882e-12 0 0)
(1.1611e-12 0 0)
(7.17563e-13 0 0)
(3.70216e-12 0 0)
(-1.41477e-12 0 0)
(5.74025e-12 0 0)
(1.83425e-12 0 0)
(3.38428e-12 0 0)
(3.65609e-12 0 0)
(1.79375e-12 0 0)
(1.14813e-12 0 0)
(4.88244e-13 0 0)
(2.47424e-12 0 0)
(1.04727e-12 0 0)
(-4.49275e-13 0 0)
(2.18471e-12 0 0)
(-1.6029e-13 0 0)
(-1.07012e-12 0 0)
(1.80678e-12 0 0)
(1.6479e-12 0 0)
(-1.54199e-12 0 0)
(2.13796e-12 0 0)
(-3.16766e-12 0 0)
(1.99091e-12 0 0)
(5.48065e-13 0 0)
(-4.07247e-13 0 0)
(-1.71285e-13 0 0)
(-1.20925e-12 0 0)
(-7.95243e-13 0 0)
(-6.92933e-13 0 0)
(2.69402e-12 0 0)
(6.34782e-13 0 0)
(-1.83318e-12 0 0)
(1.29402e-12 0 0)
(1.85731e-12 0 0)
(-2.2312e-13 0 0)
(7.89451e-13 0 0)
(-1.61073e-12 0 0)
(2.60026e-12 0 0)
(-5.84151e-13 0 0)
(3.44869e-12 0 0)
(2.69078e-12 0 0)
(-3.33749e-13 0 0)
(-1.29013e-12 0 0)
(-3.96345e-12 0 0)
(-9.16145e-13 0 0)
(8.71014e-14 0 0)
(1.31875e-12 0 0)
(4.38281e-12 0 0)
(-2.11486e-12 0 0)
(3.4836e-12 0 0)
(8.89007e-13 0 0)
(3.49985e-13 0 0)
(1.64956e-12 0 0)
(3.74616e-12 0 0)
(5.6619e-12 0 0)
(5.99514e-12 0 0)
(6.75595e-12 0 0)
(8.09041e-12 0 0)
(6.24985e-12 0 0)
(7.50782e-12 0 0)
(7.87417e-12 0 0)
(7.56289e-12 0 0)
(1.01739e-11 0 0)
(7.21751e-12 0 0)
(9.29477e-12 0 0)
(5.41309e-12 0 0)
(4.99292e-12 0 0)
(4.47869e-12 0 0)
(5.52236e-12 0 0)
(4.72096e-12 0 0)
(6.73838e-12 0 0)
(4.81348e-12 0 0)
(5.24957e-12 0 0)
(3.53239e-12 0 0)
(2.41574e-12 0 0)
(3.42416e-12 0 0)
(-2.2962e-13 0 0)
(2.81575e-12 0 0)
(2.89241e-12 0 0)
(6.1942e-12 0 0)
(4.35759e-12 0 0)
(3.47345e-12 0 0)
(2.58811e-12 0 0)
(1.49216e-12 0 0)
(1.69207e-12 0 0)
(1.10989e-12 0 0)
(2.12027e-12 0 0)
(2.80139e-12 0 0)
(2.21223e-12 0 0)
(2.71471e-13 0 0)
(-7.20284e-13 0 0)
(-4.49116e-13 0 0)
(-1.84836e-12 0 0)
(1.40875e-13 0 0)
(-2.07874e-12 0 0)
(-4.54802e-12 0 0)
(-3.05614e-12 0 0)
(-4.5938e-12 0 0)
(-1.0071e-12 0 0)
(-1.63393e-12 0 0)
(-1.21068e-12 0 0)
(-1.82262e-12 0 0)
(1.81564e-13 0 0)
(1.08721e-12 0 0)
(-1.57218e-13 0 0)
(4.88478e-13 0 0)
(2.31827e-13 0 0)
(-5.03033e-13 0 0)
(-3.60352e-12 0 0)
(-1.6963e-12 0 0)
(-3.12618e-12 0 0)
(1.67317e-12 0 0)
(-1.66019e-12 0 0)
(2.68066e-12 0 0)
(-2.41905e-13 0 0)
(-1.26256e-12 0 0)
(2.97431e-13 0 0)
(-3.18344e-14 0 0)
(2.83425e-12 0 0)
(1.26806e-12 0 0)
(9.31598e-13 0 0)
(3.40069e-13 0 0)
(3.93166e-12 0 0)
(8.73569e-12 0 0)
(2.31257e-11 0 0)
(6.1175e-11 0 0)
(1.58058e-10 0 0)
(4.10411e-10 0 0)
(1.03677e-09 0 0)
(2.5827e-09 0 0)
(6.34779e-09 0 0)
(1.54092e-08 0 0)
(3.69472e-08 0 0)
(8.75046e-08 0 0)
(2.0469e-07 0 0)
(4.72821e-07 0 0)
(1.07828e-06 0 0)
(2.42716e-06 0 0)
(5.39108e-06 0 0)
(1.18124e-05 0 0)
(2.55246e-05 0 0)
(5.43739e-05 0 0)
(0.000114153 0 0)
(0.000236094 0 0)
(0.000480855 0 0)
(0.000964028 0 0)
(0.00190157 0 0)
(0.00368865 0 0)
(0.00703263 0 0)
(0.0131707 0 0)
(0.0242136 0 0)
(0.0436678 0 0)
(0.077192 0 0)
(0.133634 0 0)
(0.226349 0 0)
(0.374711 0 0)
(0.605566 0 0)
(0.954134 0 0)
(1.46352 0 0)
(2.18155 0 0)
(3.15227 0 0)
(4.39807 0 0)
(5.90712 0 0)
(7.65119 0 0)
(9.6065 0 0)
(11.7519 0 0)
(14.0645 0 0)
(16.5206 0 0)
(19.0974 0 0)
(21.7748 0 0)
(24.5355 0 0)
(27.365 0 0)
(30.2517 0 0)
(33.1859 0 0)
(36.16 0 0)
(39.1679 0 0)
(42.2045 0 0)
(45.2657 0 0)
(48.3479 0 0)
(51.4482 0 0)
(54.5643 0 0)
(57.6939 0 0)
(60.8351 0 0)
(63.9864 0 0)
(67.1462 0 0)
(70.3132 0 0)
(73.4862 0 0)
(76.6639 0 0)
(79.8454 0 0)
(83.0295 0 0)
(86.2153 0 0)
(89.4018 0 0)
(92.588 0 0)
(95.7729 0 0)
(98.9557 0 0)
(102.135 0 0)
(105.31 0 0)
(108.48 0 0)
(111.644 0 0)
(114.8 0 0)
(117.947 0 0)
(121.084 0 0)
(124.209 0 0)
(127.321 0 0)
(130.419 0 0)
(133.5 0 0)
(136.562 0 0)
(139.604 0 0)
(142.623 0 0)
(145.616 0 0)
(148.581 0 0)
(151.515 0 0)
(154.414 0 0)
(157.274 0 0)
(160.093 0 0)
(162.863 0 0)
(165.583 0 0)
(168.244 0 0)
(170.844 0 0)
(173.371 0 0)
(175.826 0 0)
(178.192 0 0)
(180.468 0 0)
(182.643 0 0)
(184.708 0 0)
(186.658 0 0)
(188.475 0 0)
(190.157 0 0)
(191.695 0 0)
(193.078 0 0)
(194.304 0 0)
(195.37 0 0)
(196.275 0 0)
(197.018 0 0)
(197.613 0 0)
(198.071 0 0)
(198.399 0 0)
(198.62 0 0)
(198.76 0 0)
(198.836 0 0)
(198.862 0 0)
(198.863 0 0)
(198.864 0 0)
(198.862 0 0)
(198.851 0 0)
(198.829 0 0)
(198.789 0 0)
(198.738 0 0)
(198.692 0 0)
(198.654 0 0)
(198.627 0 0)
(198.609 0 0)
(198.598 0 0)
(198.591 0 0)
(198.588 0 0)
(198.586 0 0)
(198.584 0 0)
(198.582 0 0)
(198.581 0 0)
(198.58 0 0)
(198.579 0 0)
(198.577 0 0)
(198.576 0 0)
(198.575 0 0)
(198.574 0 0)
(198.572 0 0)
(198.571 0 0)
(198.57 0 0)
(198.57 0 0)
(198.57 0 0)
(198.569 0 0)
(198.568 0 0)
(198.567 0 0)
(198.565 0 0)
(198.564 0 0)
(198.562 0 0)
(198.561 0 0)
(198.56 0 0)
(198.558 0 0)
(198.557 0 0)
(198.556 0 0)
(198.555 0 0)
(198.554 0 0)
(198.552 0 0)
(198.551 0 0)
(198.551 0 0)
(198.551 0 0)
(198.55 0 0)
(198.549 0 0)
(198.548 0 0)
(198.546 0 0)
(198.545 0 0)
(198.544 0 0)
(198.543 0 0)
(198.542 0 0)
(198.542 0 0)
(198.541 0 0)
(198.539 0 0)
(198.539 0 0)
(198.538 0 0)
(198.536 0 0)
(198.54 0 0)
(198.554 0 0)
(198.576 0 0)
(198.62 0 0)
(198.734 0 0)
(198.944 0 0)
(198.968 0 0)
(198.74 0 0)
(198.55 0 0)
(198.468 0 0)
(198.473 0 0)
(198.487 0 0)
(198.479 0 0)
(198.476 0 0)
(198.507 0 0)
(198.536 0 0)
(198.521 0 0)
(198.49 0 0)
(198.498 0 0)
(198.534 0 0)
(198.535 0 0)
(198.494 0 0)
(198.473 0 0)
(198.5 0 0)
(198.526 0 0)
(198.505 0 0)
(198.468 0 0)
(198.473 0 0)
(198.509 0 0)
(198.515 0 0)
(198.48 0 0)
(198.457 0 0)
(198.483 0 0)
(198.509 0 0)
(198.483 0 0)
(198.441 0 0)
(198.447 0 0)
(198.482 0 0)
(198.479 0 0)
(198.432 0 0)
(198.409 0 0)
(198.436 0 0)
(198.456 0 0)
(198.417 0 0)
(198.368 0 0)
(198.373 0 0)
(198.405 0 0)
(198.388 0 0)
(198.328 0 0)
(198.294 0 0)
(198.312 0 0)
(198.322 0 0)
(198.27 0 0)
(198.206 0 0)
(198.197 0 0)
(198.214 0 0)
(198.177 0 0)
(198.094 0 0)
(198.043 0 0)
(198.044 0 0)
(198.029 0 0)
(197.943 0 0)
(197.848 0 0)
(197.802 0 0)
(197.781 0 0)
(197.712 0 0)
(197.59 0 0)
(197.49 0 0)
(197.428 0 0)
(197.358 0 0)
(197.213 0 0)
(197.041 0 0)
(196.914 0 0)
(196.815 0 0)
(196.651 0 0)
(196.389 0 0)
(196.145 0 0)
(195.975 0 0)
(195.801 0 0)
(195.445 0 0)
(195.002 0 0)
(194.674 0 0)
(194.387 0 0)
(193.887 0 0)
(193.144 0 0)
(192.361 0 0)
(191.249 0 0)
(189.123 0 0)
(184.634 0 0)
(172.291 0 0)
(129.195 0 0)
(57.3349 0 0)
(15.8679 0 0)
(3.97345 0 0)
(0.950667 0 0)
(0.224662 0 0)
(0.0529611 0 0)
(0.0124781 0 0)
(0.00293956 0 0)
(0.000692406 0 0)
(0.000163078 0 0)
(3.84049e-05 0 0)
(9.04358e-06 0 0)
(2.1294e-06 0 0)
(5.01342e-07 0 0)
(1.18025e-07 0 0)
(2.77839e-08 0 0)
(6.54016e-09 0 0)
(1.54022e-09 0 0)
(3.62843e-10 0 0)
(8.59608e-11 0 0)
(1.88019e-11 0 0)
(4.62098e-12 0 0)
(-4.20103e-13 0 0)
(-1.74731e-12 0 0)
(-3.11682e-12 0 0)
(-6.12193e-13 0 0)
(4.71575e-13 0 0)
(-8.9071e-13 0 0)
(9.86462e-13 0 0)
(1.94582e-12 0 0)
(2.97487e-12 0 0)
(3.07218e-12 0 0)
(2.24007e-12 0 0)
(3.60982e-12 0 0)
(2.69941e-12 0 0)
(6.61213e-12 0 0)
(5.67786e-12 0 0)
(2.43688e-12 0 0)
(2.39715e-12 0 0)
(2.66568e-12 0 0)
(2.375e-12 0 0)
(-6.245e-14 0 0)
(1.82549e-12 0 0)
(4.00789e-13 0 0)
(8.12635e-13 0 0)
(2.18509e-13 0 0)
(-2.41416e-13 0 0)
(7.0768e-13 0 0)
(-2.78047e-12 0 0)
(-2.91199e-12 0 0)
(-5.42246e-12 0 0)
(-1.19507e-12 0 0)
(-3.92898e-12 0 0)
(-1.64949e-12 0 0)
(-2.38128e-13 0 0)
(-1.53695e-12 0 0)
(2.13316e-12 0 0)
(-8.46536e-14 0 0)
(3.35599e-12 0 0)
(-1.56185e-12 0 0)
(3.38542e-12 0 0)
(4.19039e-14 0 0)
(-9.45974e-13 0 0)
(-1.07435e-12 0 0)
(9.46551e-13 0 0)
(7.24595e-13 0 0)
(2.95591e-12 0 0)
(2.8595e-12 0 0)
(2.44557e-12 0 0)
(-1.63328e-12 0 0)
(8.22655e-14 0 0)
(-4.2896e-13 0 0)
(1.04424e-12 0 0)
(7.36359e-13 0 0)
(-1.34659e-12 0 0)
(-4.64657e-13 0 0)
(-6.04034e-13 0 0)
(-1.41184e-12 0 0)
(-2.87191e-12 0 0)
(-4.92291e-12 0 0)
(-5.52945e-12 0 0)
(-5.55337e-12 0 0)
(-5.49233e-12 0 0)
(-6.38608e-12 0 0)
(-8.74964e-13 0 0)
(-3.21644e-12 0 0)
(-2.83531e-13 0 0)
(-1.16989e-12 0 0)
(-1.31935e-12 0 0)
(1.59797e-12 0 0)
(2.53725e-12 0 0)
(6.82089e-13 0 0)
(6.85583e-13 0 0)
(6.4574e-13 0 0)
(-3.73464e-13 0 0)
(4.93267e-12 0 0)
(2.21573e-12 0 0)
(2.1447e-12 0 0)
(-1.4989e-12 0 0)
(3.60348e-12 0 0)
(1.73199e-12 0 0)
(2.44253e-12 0 0)
(-2.40241e-12 0 0)
(-8.41445e-13 0 0)
(-6.2123e-12 0 0)
(-2.23331e-12 0 0)
(-2.69214e-12 0 0)
(-5.38281e-13 0 0)
(-4.9715e-12 0 0)
(-2.13674e-12 0 0)
(-3.56535e-12 0 0)
(1.04376e-12 0 0)
(-7.32524e-13 0 0)
(2.23426e-12 0 0)
(-5.24297e-13 0 0)
(-7.04081e-14 0 0)
(-6.73922e-13 0 0)
(-4.96197e-13 0 0)
(4.09482e-13 0 0)
(-2.56259e-12 0 0)
(-1.53069e-12 0 0)
(-1.86525e-12 0 0)
(-3.7136e-13 0 0)
(-1.23318e-12 0 0)
(3.42804e-12 0 0)
(-1.48878e-12 0 0)
(1.83679e-13 0 0)
(-2.38275e-12 0 0)
(-1.27584e-13 0 0)
(-5.11659e-12 0 0)
(-1.8495e-12 0 0)
(-4.84251e-12 0 0)
(-5.47572e-12 0 0)
(-7.03265e-12 0 0)
(-3.4859e-12 0 0)
(-4.46614e-12 0 0)
(8.91791e-13 0 0)
(-1.21256e-12 0 0)
(-2.17792e-12 0 0)
(-2.03043e-12 0 0)
(1.88595e-12 0 0)
(3.55552e-12 0 0)
(6.6651e-13 0 0)
(2.86416e-13 0 0)
(-3.67046e-12 0 0)
(-8.98153e-13 0 0)
(2.62939e-12 0 0)
(4.27233e-13 0 0)
(-2.51376e-12 0 0)
(8.82129e-13 0 0)
(-2.38266e-12 0 0)
(-7.66739e-13 0 0)
(-8.6209e-13 0 0)
(3.44903e-12 0 0)
(-2.6173e-12 0 0)
(4.47439e-14 0 0)
(-3.73752e-12 0 0)
(-8.59898e-13 0 0)
(-4.46607e-12 0 0)
(7.66964e-13 0 0)
(-9.56236e-14 0 0)
(5.90121e-13 0 0)
(1.58796e-12 0 0)
(-2.81284e-12 0 0)
(-5.17088e-13 0 0)
(-4.28205e-12 0 0)
(1.52101e-12 0 0)
(-4.60952e-13 0 0)
(-5.52354e-13 0 0)
(-9.30497e-13 0 0)
(-4.26217e-12 0 0)
(-1.37334e-12 0 0)
(-2.35463e-13 0 0)
(4.16197e-13 0 0)
(1.65649e-12 0 0)
(-8.30649e-13 0 0)
(2.34181e-12 0 0)
(7.44104e-13 0 0)
(6.87022e-12 0 0)
(-8.52347e-13 0 0)
(1.73505e-12 0 0)
(1.38685e-12 0 0)
(-1.30068e-12 0 0)
(2.17301e-12 0 0)
(1.72671e-12 0 0)
(2.34571e-12 0 0)
(5.36938e-12 0 0)
(3.03709e-12 0 0)
(5.07517e-12 0 0)
(6.55723e-12 0 0)
(6.27593e-12 0 0)
(4.49786e-12 0 0)
(4.43401e-12 0 0)
(4.48118e-13 0 0)
(-1.75468e-13 0 0)
(-5.02276e-12 0 0)
(-4.94195e-12 0 0)
(-3.84928e-12 0 0)
(-4.81098e-12 0 0)
(-3.56325e-12 0 0)
(-1.21238e-12 0 0)
(-5.90166e-13 0 0)
(-1.05155e-12 0 0)
(9.3789e-14 0 0)
(2.91803e-12 0 0)
(4.06502e-12 0 0)
(3.32888e-12 0 0)
(3.28625e-12 0 0)
(5.01252e-12 0 0)
(5.00146e-12 0 0)
(2.8201e-12 0 0)
(1.32226e-12 0 0)
(-2.92807e-12 0 0)
(-2.78889e-12 0 0)
(-4.54044e-12 0 0)
(-4.65588e-12 0 0)
(-8.2601e-12 0 0)
(-7.18471e-12 0 0)
(-1.01532e-11 0 0)
(-7.52799e-12 0 0)
(-8.59494e-12 0 0)
(-7.87833e-12 0 0)
(-1.07472e-11 0 0)
(-1.2639e-11 0 0)
(-1.22644e-11 0 0)
(-9.00011e-12 0 0)
(-8.52846e-12 0 0)
(-7.58349e-12 0 0)
(-4.76184e-12 0 0)
(-3.71129e-12 0 0)
(-1.37375e-12 0 0)
(5.19766e-13 0 0)
(2.31625e-12 0 0)
(4.42964e-12 0 0)
(4.91724e-12 0 0)
(3.53419e-12 0 0)
(3.66531e-12 0 0)
(5.85233e-12 0 0)
(4.26213e-12 0 0)
(3.72724e-12 0 0)
(-4.54905e-14 0 0)
(2.49701e-12 0 0)
(5.50006e-12 0 0)
(4.61797e-12 0 0)
(5.36562e-12 0 0)
(2.55328e-12 0 0)
(4.55098e-13 0 0)
(1.61976e-12 0 0)
(8.691e-13 0 0)
(5.10436e-14 0 0)
(-2.33149e-13 0 0)
(-8.48029e-13 0 0)
(2.9801e-13 0 0)
(9.8986e-13 0 0)
(3.29591e-13 0 0)
(-1.73208e-12 0 0)
(2.42202e-13 0 0)
(1.9534e-12 0 0)
(4.24508e-12 0 0)
(1.63688e-12 0 0)
(1.12308e-13 0 0)
(3.66642e-12 0 0)
(3.15197e-12 0 0)
(6.65495e-13 0 0)
(4.55094e-12 0 0)
(3.07559e-12 0 0)
(3.11421e-12 0 0)
(1.66478e-12 0 0)
(1.78626e-12 0 0)
(7.71669e-13 0 0)
(2.98921e-12 0 0)
(2.66136e-12 0 0)
(1.37536e-12 0 0)
(1.11237e-12 0 0)
(-1.29637e-12 0 0)
(3.4662e-12 0 0)
(-4.94424e-13 0 0)
(2.08174e-12 0 0)
(1.74839e-12 0 0)
(2.90303e-12 0 0)
(6.37993e-12 0 0)
(8.3939e-12 0 0)
(9.6472e-12 0 0)
(8.41869e-12 0 0)
(6.68841e-12 0 0)
(5.96042e-12 0 0)
(8.65868e-12 0 0)
(5.92872e-12 0 0)
(6.39065e-12 0 0)
(7.63703e-12 0 0)
(3.75353e-12 0 0)
(5.90381e-12 0 0)
(5.27256e-12 0 0)
(1.74551e-12 0 0)
(2.3905e-12 0 0)
(5.72612e-12 0 0)
(3.97925e-12 0 0)
(5.49772e-12 0 0)
(3.91604e-12 0 0)
(2.68991e-12 0 0)
(2.58225e-12 0 0)
(5.60793e-13 0 0)
(1.63434e-12 0 0)
(-1.40927e-13 0 0)
(1.34937e-12 0 0)
(9.33939e-13 0 0)
(-4.04769e-13 0 0)
(4.42059e-13 0 0)
(-1.68818e-13 0 0)
(-1.11399e-13 0 0)
(-1.34418e-12 0 0)
(1.93248e-12 0 0)
(7.52188e-14 0 0)
(7.04784e-13 0 0)
(1.73915e-12 0 0)
(3.73904e-12 0 0)
(5.59427e-12 0 0)
(-1.29244e-13 0 0)
(3.06495e-12 0 0)
(-2.3351e-12 0 0)
(-7.76926e-14 0 0)
(-1.91682e-12 0 0)
(-1.05603e-12 0 0)
(2.89055e-12 0 0)
(3.74732e-12 0 0)
(3.85963e-12 0 0)
(6.12586e-12 0 0)
(2.46144e-12 0 0)
(3.76016e-12 0 0)
(-1.92156e-12 0 0)
(1.29378e-12 0 0)
(1.40877e-12 0 0)
(-2.34104e-13 0 0)
(3.18444e-12 0 0)
(3.60766e-12 0 0)
(3.4899e-12 0 0)
(2.40335e-12 0 0)
(5.45234e-12 0 0)
(2.41326e-12 0 0)
(4.32525e-12 0 0)
(4.15658e-12 0 0)
(5.14885e-12 0 0)
(6.66131e-12 0 0)
(9.74138e-12 0 0)
(8.18349e-12 0 0)
(1.11333e-11 0 0)
(9.47752e-12 0 0)
(1.17289e-11 0 0)
(1.25168e-11 0 0)
(1.39453e-11 0 0)
(1.37349e-11 0 0)
(1.32602e-11 0 0)
(1.32696e-11 0 0)
(1.22522e-11 0 0)
(1.14019e-11 0 0)
(1.27255e-11 0 0)
(1.28041e-11 0 0)
(1.03941e-11 0 0)
(1.31953e-11 0 0)
(1.4036e-11 0 0)
(1.53451e-11 0 0)
(1.51132e-11 0 0)
(1.67413e-11 0 0)
(1.5466e-11 0 0)
(1.87087e-11 0 0)
(1.65776e-11 0 0)
(2.16699e-11 0 0)
(1.84691e-11 0 0)
(2.06116e-11 0 0)
(1.87705e-11 0 0)
)
;

boundaryField
{
    sides
    {
        type            zeroGradient;
    }
    empty
    {
        type            empty;
    }
}


// ************************************************************************* //
