/*--------------------------------*- C++ -*----------------------------------*\
| =========                 |                                                 |
| \\      /  F ield         | OpenFOAM: The Open Source CFD Toolbox           |
|  \\    /   O peration     | Version:  4.1                                   |
|   \\  /    A nd           | Web:      www.OpenFOAM.org                      |
|    \\/     M anipulation  |                                                 |
\*---------------------------------------------------------------------------*/
FoamFile
{
    version     2.0;
    format      ascii;
    class       surfaceScalarField;
    location    "0.001";
    object      phi;
}
// * * * * * * * * * * * * * * * * * * * * * * * * * * * * * * * * * * * * * //

dimensions      [1 0 -1 0 0 0 0];

internalField   nonuniform List<scalar> 
999
(
-2.3114e-11
-3.05889e-11
-2.96794e-11
-2.4869e-11
-1.75007e-11
-1.54969e-11
-1.42748e-11
-1.45377e-11
-1.65912e-11
-1.72378e-11
-1.54898e-11
-1.82396e-11
-2.33058e-11
-2.01581e-11
-1.44453e-11
-9.50706e-12
-5.6275e-12
7.31859e-13
5.18696e-13
7.26885e-12
7.16227e-12
3.65219e-12
3.8014e-12
-1.06581e-12
-1.42819e-12
-1.66267e-12
2.01084e-12
-5.18696e-12
-5.40012e-13
1.60583e-12
7.4607e-13
5.76961e-12
7.05569e-12
4.40536e-12
4.88143e-12
4.00036e-12
-2.60059e-12
-7.25464e-12
-3.08376e-12
3.97904e-13
1.98952e-12
-2.47979e-12
-2.99138e-12
-5.1088e-12
-1.01892e-11
-1.10418e-11
-1.36353e-11
-1.81899e-11
-1.19371e-11
-4.35563e-12
-3.15481e-12
-7.36833e-12
-1.07576e-11
-7.51754e-12
-7.78755e-12
-6.83542e-12
-1.14895e-11
-6.20304e-12
-7.87281e-12
-2.2311e-12
5.3646e-12
4.68248e-12
4.80327e-12
1.24132e-11
9.1589e-12
8.896e-12
8.22098e-12
1.19442e-11
1.35003e-11
1.37916e-11
9.05942e-12
2.72848e-12
8.27072e-12
7.68807e-12
4.68958e-13
-6.98464e-12
-7.95097e-12
-4.09273e-12
8.2423e-13
-1.72662e-12
-2.01084e-12
-3.60245e-12
-4.00746e-12
-8.19256e-12
-1.12337e-11
-1.72591e-11
-2.20552e-11
-2.10036e-11
-1.40616e-11
-9.37916e-12
-1.81899e-12
6.58673e-12
1.18661e-11
1.37348e-11
2.00444e-11
2.62403e-11
2.80664e-11
2.15721e-11
1.7522e-11
1.40545e-11
1.0381e-11
1.38343e-11
1.41753e-11
1.17595e-11
1.42535e-11
1.49001e-11
1.37916e-11
1.16103e-11
4.95959e-12
6.74305e-12
7.7307e-12
2.51532e-12
4.36984e-12
8.61888e-12
7.65965e-12
4.00036e-12
6.06093e-12
2.6148e-12
6.60805e-13
3.0127e-12
7.18359e-12
8.29203e-12
1.52127e-11
1.66622e-11
1.6982e-11
1.84528e-11
1.71383e-11
1.1525e-11
1.07292e-11
6.62936e-12
3.16192e-12
-7.38964e-13
-6.11067e-12
-4.55458e-12
2.32347e-12
1.20792e-12
-5.24381e-12
-4.27036e-12
-5.60618e-12
-4.16378e-12
-1.05942e-11
-1.60512e-11
-1.21858e-11
-5.17986e-12
-4.8388e-12
-4.75353e-12
-5.32907e-13
7.41096e-12
1.39053e-11
1.60369e-11
1.7188e-11
1.32019e-11
8.29203e-12
4.26326e-12
-7.81597e-13
-2.34479e-13
-2.62901e-13
-5.79092e-12
-5.24381e-12
-1.76215e-12
-5.74829e-12
-1.45732e-11
-1.48077e-11
-1.02816e-11
-4.24905e-12
-7.22622e-12
-1.37845e-11
-1.76072e-11
-1.10418e-11
-7.78755e-12
-1.44951e-12
-2.94875e-12
-1.78346e-12
-2.27374e-13
-2.70006e-12
-2.67164e-12
4.54747e-13
1.69109e-12
2.14584e-12
-2.94165e-12
-9.57101e-12
-8.48388e-12
-4.55458e-12
-2.14584e-12
5.22959e-12
8.46967e-12
6.33804e-12
6.60805e-12
4.12115e-13
-2.21689e-12
-3.75167e-12
-1.27898e-12
1.5703e-12
4.81037e-12
2.72848e-12
9.52838e-12
1.48219e-11
1.09708e-11
8.46967e-12
1.1255e-11
1.77209e-11
1.48361e-11
2.07123e-11
2.25171e-11
1.80265e-11
1.19158e-11
7.48912e-12
3.55271e-14
4.1922e-13
7.57439e-12
3.83693e-13
-5.06617e-12
-3.45324e-12
-7.79465e-12
-6.98464e-12
-3.75167e-12
-2.12452e-12
2.29505e-12
-2.76401e-12
1.3145e-12
7.39675e-12
1.99663e-12
4.61142e-12
4.0572e-12
2.86349e-12
8.31335e-13
1.92557e-12
6.98464e-12
1.4353e-12
6.37357e-12
4.24905e-12
1.20863e-11
6.91358e-12
4.7109e-12
3.68061e-12
-2.4869e-13
2.62901e-13
3.62377e-13
-6.25278e-13
-2.92744e-12
-3.05533e-12
-1.55609e-12
-2.19558e-12
-9.66338e-13
1.60583e-12
2.99849e-12
-2.06768e-12
-6.1533e-12
1.20082e-12
7.21911e-12
1.56319e-13
-4.22062e-12
-1.07931e-11
-1.59091e-11
-9.49285e-12
-8.78231e-12
-8.31335e-12
-5.58487e-12
-3.26139e-12
-1.86162e-12
-1.35714e-12
1.42109e-13
3.70193e-12
-1.20082e-12
-4.54037e-12
-1.01892e-11
-1.004e-11
-8.88889e-12
-4.13536e-12
4.01457e-12
3.21876e-12
8.5052e-12
1.00613e-11
8.58336e-12
1.53619e-11
1.49427e-11
1.36566e-11
1.44738e-11
7.14095e-12
6.47304e-12
5.79092e-12
6.82121e-13
0
7.10543e-15
7.95808e-13
3.19744e-12
-7.88702e-13
-3.24718e-12
0
0
0
0
0
0
-7.10543e-15
-1.8332e-12
-3.5314e-12
-1.63425e-12
2.43716e-12
5.30775e-12
5.18696e-13
-1.54188e-12
1.40687e-12
1.61293e-12
1.90425e-12
3.2756e-12
-1.10134e-12
-1.08002e-12
-1.42109e-14
1.42109e-14
-2.82085e-12
-7.10543e-15
2.39453e-12
-3.68061e-12
-2.089e-12
5.40012e-13
0
0
0
1.44951e-12
1.62714e-12
-1.62714e-12
-1.44951e-12
2.27374e-13
1.56319e-13
-1.56319e-13
-2.27374e-13
1.40687e-12
1.61293e-12
1.90425e-12
3.2756e-12
-1.10134e-12
-1.08002e-12
-1.42109e-14
1.42109e-14
-2.82085e-12
-7.10543e-15
2.39453e-12
-3.68061e-12
-2.089e-12
5.40012e-13
0
0
0
2.7498e-12
3.16902e-12
2.66454e-12
7.09122e-12
7.11964e-12
1.01608e-12
2.70717e-12
1.86873e-12
3.21876e-12
-1.76925e-12
-9.96891e-12
-1.05231e-11
-5.42855e-12
1.03029e-12
1.86873e-12
5.07328e-12
3.50298e-12
1.98952e-13
-3.84404e-12
-1.66267e-12
1.5703e-12
3.9222e-12
3.86535e-12
-2.13163e-14
-3.42482e-12
-5.91882e-12
-3.73035e-12
-3.87956e-12
-2.39453e-12
0
0
0
0
1.44951e-12
1.46372e-12
-1.52056e-12
-1.46372e-12
0
0
0
3.33955e-13
1.5703e-12
2.77822e-12
2.25242e-12
2.83507e-12
1.00897e-12
-4.54747e-13
1.49214e-13
1.76925e-12
1.73372e-12
-5.19407e-12
-3.51008e-12
-3.24718e-12
-1.91136e-12
0
0
0
0
0
0
0
0
0
0
0
0
0
0
0
0
0
-1.15818e-12
-1.22213e-12
-1.60583e-12
1.36424e-12
2.72138e-12
-1.42109e-14
0
0
0
1.06581e-13
1.20792e-12
7.53886e-12
3.24292e-11
1.23883e-10
4.42604e-10
1.5206e-09
5.11209e-09
1.68357e-08
5.43313e-08
1.71893e-07
5.33024e-07
1.61924e-06
4.81631e-06
1.40185e-05
3.99016e-05
0.00011099
0.000301476
0.00079901
0.00206442
0.00519487
0.0127182
0.0302582
0.0698664
0.15634
0.338484
0.707747
1.42632
2.76374
5.13416
9.11187
15.3769
24.4531
36.0809
49.8474
65.4308
82.3828
100.232
118.555
137.011
155.344
173.366
190.948
207.996
224.445
240.249
255.377
269.806
283.522
296.514
308.776
320.303
331.096
341.148
350.476
359.033
366.943
373.96
380.484
386.117
390.93
395.54
398.878
401.91
404.565
406.102
407.377
408.594
409.094
409.174
409.346
409.471
409.453
409.306
409.202
409.141
409.078
408.968
408.777
408.68
408.635
408.536
408.433
408.384
408.304
408.05
407.768
407.674
407.741
408.506
409.029
408.966
406.063
388.606
349.989
319.748
299.189
286.995
279.663
275.457
273.198
272.566
272.832
272.882
272.653
272.751
272.981
273.383
273.061
272.603
272.609
272.856
273.122
272.223
272.028
272.105
272.475
272.511
270.922
270.738
270.901
271.656
270.337
267.997
267.435
266.877
266.866
263.001
238.243
177.526
54.639
15.2023
3.73979
0.885144
0.207749
0.0486793
0.0114017
0.00266946
0.000624677
0.000146088
3.41383e-05
7.96985e-06
1.85838e-06
4.32676e-07
1.00552e-07
2.33156e-08
5.39266e-09
1.24381e-09
2.85588e-10
6.52811e-11
1.45413e-11
3.12816e-12
7.4607e-14
-1.72307e-13
2.94875e-13
-1.22569e-13
0
6.8745e-13
7.49623e-13
-1.77636e-15
4.83169e-13
-7.4607e-14
-2.94875e-13
-3.09086e-13
-3.30402e-13
2.52243e-13
3.17968e-13
1.22569e-13
-2.45137e-13
-3.01981e-13
4.56524e-13
8.26006e-13
8.82849e-13
1.7053e-13
-9.21929e-13
-1.97176e-13
-1.06581e-13
-2.13163e-13
6.39488e-14
-7.08766e-13
-4.54747e-13
-8.95284e-13
-1.91491e-12
-1.47615e-12
-1.02673e-12
-2.34479e-13
-3.03757e-13
-1.38556e-13
-1.52767e-13
-1.5099e-13
1.2399e-12
1.1191e-12
-6.37712e-13
2.84217e-14
2.64677e-13
-1.47438e-13
8.36664e-13
2.29683e-12
4.86722e-13
-3.28626e-13
5.73763e-13
5.32907e-13
6.89226e-13
4.83169e-13
-1.86517e-13
-1.18483e-12
-8.34888e-13
-3.90799e-13
-9.04166e-13
-1.56142e-12
-1.63602e-12
-1.0143e-12
2.0961e-13
-7.97584e-13
-1.4122e-12
6.39488e-13
9.91207e-13
-6.16396e-13
-6.53699e-13
-1.22924e-12
-1.38733e-12
-7.49623e-13
1.29319e-12
1.94333e-12
1.15996e-12
1.22569e-12
1.82965e-13
-6.21725e-13
1.45661e-13
5.73763e-13
-1.49036e-12
-9.21929e-13
4.20997e-13
-1.3145e-13
-5.80869e-13
-9.09495e-13
-1.77458e-12
-1.57208e-12
-7.28306e-14
7.33635e-13
1.48859e-12
2.44071e-12
1.08713e-12
-4.60076e-13
-1.42819e-12
-7.19425e-13
-1.22569e-13
1.40155e-12
7.92255e-13
3.90799e-14
3.37508e-13
3.6593e-13
-4.10338e-13
-8.75744e-13
-1.0747e-12
-2.16893e-12
-9.78773e-13
5.73763e-13
-1.59872e-13
1.42109e-13
1.48681e-12
-1.98952e-13
-5.1692e-13
4.26326e-14
-3.28626e-13
8.26006e-13
1.80123e-12
9.23706e-13
1.95399e-13
-4.29878e-13
-3.73035e-14
8.10019e-13
1.26477e-12
1.84741e-13
-7.63833e-14
-3.78364e-13
6.4837e-13
1.41043e-12
1.92912e-12
1.88471e-12
4.583e-13
-7.99361e-13
-7.76268e-13
7.28306e-14
2.77112e-13
0
0
0
-1.77636e-15
3.55271e-15
0
-7.10543e-15
-2.50466e-13
-7.78044e-13
-1.43885e-13
7.54952e-13
5.13367e-13
-6.92779e-14
4.9738e-14
1.77636e-15
-7.30083e-13
-6.37712e-13
-1.47438e-13
-4.3876e-13
2.64677e-13
2.20268e-13
7.78044e-13
1.10845e-12
-1.20792e-13
-2.54019e-13
0
0
0
-1.77636e-15
3.55271e-15
0
1.45661e-13
7.58504e-13
6.37712e-13
-3.42837e-13
7.63833e-14
5.50671e-13
6.59028e-13
7.37188e-13
-1.13332e-12
-7.60281e-13
-7.19425e-13
-6.53699e-13
-9.34364e-13
-6.43041e-13
9.9476e-14
7.78044e-13
1.0747e-12
-1.43885e-13
-2.54019e-13
0
0
0
-1.77636e-15
3.55271e-15
0
-5.32907e-15
1.77636e-15
0
0
1.59872e-14
-3.35731e-13
4.42313e-13
3.6593e-13
-1.03029e-12
-6.6791e-13
-1.27898e-13
-5.31131e-13
-2.41585e-13
7.24754e-13
-1.42109e-14
-3.2685e-13
8.52651e-14
7.08766e-13
5.18696e-13
-9.07718e-13
-1.1422e-12
-8.11795e-13
-7.81597e-14
3.01981e-13
6.00409e-13
1.112e-12
9.78773e-13
1.59872e-13
0
1.59872e-14
-3.35731e-13
4.42313e-13
3.6593e-13
-1.03029e-12
-6.6791e-13
-1.27898e-13
-5.31131e-13
-2.41585e-13
7.24754e-13
3.01981e-14
-2.57572e-13
1.66978e-13
5.71987e-13
7.72715e-13
-9.41469e-14
-9.59233e-14
-5.87974e-13
-6.98108e-13
6.83897e-13
6.83897e-13
1.01252e-13
-4.42313e-13
-7.31859e-13
-6.62581e-13
-4.72511e-13
-7.10543e-13
1.97176e-13
8.88178e-15
-5.87974e-13
6.50147e-13
-1.36069e-12
-1.16884e-12
-1.54365e-12
-4.26326e-13
1.17595e-12
1.25944e-12
1.19904e-12
8.95284e-13
2.59348e-13
-1.47082e-12
-1.4122e-12
6.11067e-13
-3.14415e-13
1.12799e-12
2.73204e-12
1.37845e-12
-6.27054e-13
-8.31335e-13
-6.53699e-13
-4.79616e-13
-7.10543e-13
1.97176e-13
8.88178e-15
-5.87974e-13
6.50147e-13
-1.36069e-12
-1.16884e-12
-1.54365e-12
-4.26326e-13
1.17595e-12
1.25944e-12
1.19904e-12
8.95284e-13
2.59348e-13
-1.47082e-12
-1.4122e-12
6.11067e-13
-3.14415e-13
1.12799e-12
2.73204e-12
1.37845e-12
-6.27054e-13
-8.31335e-13
-6.53699e-13
-4.79616e-13
-7.10543e-13
1.97176e-13
8.88178e-15
-5.87974e-13
6.50147e-13
-1.36069e-12
-1.17062e-12
-1.59517e-12
-6.0929e-13
8.56204e-13
7.78044e-13
-1.35003e-13
1.59872e-14
-2.05347e-12
-2.86171e-12
-1.5401e-12
-8.98837e-13
-1.81899e-12
-1.93445e-12
-9.11271e-13
-2.76401e-12
-2.27907e-12
-5.84421e-13
-2.16716e-13
-1.91491e-12
-9.9476e-13
-1.04805e-12
-8.31335e-13
-5.48894e-13
-2.11386e-13
-5.8975e-13
-6.83897e-13
-1.57208e-12
-1.92202e-12
1.61648e-13
1.2701e-12
5.32907e-15
1.74438e-12
3.52962e-12
3.6593e-12
2.22933e-12
4.02345e-12
3.03224e-12
2.32703e-12
1.74438e-12
5.40012e-13
9.87654e-13
2.23643e-12
1.28253e-12
3.44613e-13
3.74811e-13
8.31335e-13
1.22213e-12
6.96332e-13
7.38964e-13
5.09814e-13
3.01981e-14
-3.55271e-15
3.55271e-15
-5.32907e-15
1.77636e-15
0
0
0
4.22773e-13
9.80549e-13
6.64357e-13
1.27365e-12
-3.12639e-13
-1.89715e-12
-7.58504e-13
-5.50671e-14
3.73035e-14
-1.54543e-13
-1.06581e-13
-3.55271e-15
1.77636e-15
0
0
0
0
1.77636e-15
-3.55271e-15
3.55271e-15
-5.32907e-15
1.77636e-15
0
0
0
4.22773e-13
9.80549e-13
6.64357e-13
1.27365e-12
-3.12639e-13
-1.89715e-12
-7.58504e-13
-5.50671e-14
3.73035e-14
-1.54543e-13
-1.06581e-13
-3.55271e-15
1.77636e-15
0
0
0
0
1.77636e-15
-3.55271e-15
3.55271e-15
-5.32907e-15
1.77636e-15
0
0
-1.88294e-13
-9.166e-13
-1.29319e-12
-8.91731e-13
3.19744e-13
1.25766e-12
-5.50671e-14
-2.84217e-14
-1.24345e-14
1.50102e-12
3.49587e-12
2.78177e-12
4.8459e-12
7.53353e-12
7.50155e-12
7.97584e-12
)
;

boundaryField
{
    sides
    {
        type            calculated;
        value           nonuniform List<scalar> 2(7.70524e-12 2.25671e-11);
    }
    empty
    {
        type            empty;
        value           nonuniform 0();
    }
}


// ************************************************************************* //
