/*--------------------------------*- C++ -*----------------------------------*\
| =========                 |                                                 |
| \\      /  F ield         | OpenFOAM: The Open Source CFD Toolbox           |
|  \\    /   O peration     | Version:  4.1                                   |
|   \\  /    A nd           | Web:      www.OpenFOAM.org                      |
|    \\/     M anipulation  |                                                 |
\*---------------------------------------------------------------------------*/
FoamFile
{
    version     2.0;
    format      ascii;
    class       volVectorField;
    location    "0.001";
    object      U;
}
// * * * * * * * * * * * * * * * * * * * * * * * * * * * * * * * * * * * * * //

dimensions      [0 1 -1 0 0 0 0];

internalField   nonuniform List<vector> 
1000
(
(-6.49584e-12 0 0)
(-7.16755e-12 0 0)
(-9.91992e-12 0 0)
(-7.50094e-12 0 0)
(-6.16441e-12 0 0)
(-4.53009e-12 0 0)
(-3.89505e-12 0 0)
(-4.65858e-12 0 0)
(-3.71276e-12 0 0)
(-5.81916e-12 0 0)
(-4.2318e-12 0 0)
(-4.31922e-12 0 0)
(-6.53607e-12 0 0)
(-6.73128e-12 0 0)
(-5.05927e-12 0 0)
(-3.2154e-12 0 0)
(-1.879e-12 0 0)
(-1.35429e-12 0 0)
(1.58684e-12 0 0)
(-1.08774e-12 0 0)
(4.57951e-12 0 0)
(-1.30545e-13 0 0)
(2.62777e-12 0 0)
(-9.78043e-13 0 0)
(6.64297e-13 0 0)
(-1.80463e-12 0 0)
(1.08141e-12 0 0)
(-2.3299e-14 0 0)
(-2.79479e-12 0 0)
(2.43271e-12 0 0)
(-1.33467e-12 0 0)
(1.63471e-12 0 0)
(1.6697e-12 0 0)
(2.4194e-12 0 0)
(2.77006e-13 0 0)
(2.4093e-12 0 0)
(1.10619e-13 0 0)
(-1.89098e-12 0 0)
(-1.73757e-12 0 0)
(-4.35443e-13 0 0)
(8.38405e-13 0 0)
(-3.81963e-14 0 0)
(-1.12674e-12 0 0)
(-8.10858e-13 0 0)
(-2.39755e-12 0 0)
(-2.66648e-12 0 0)
(-4.06266e-12 0 0)
(-4.27674e-12 0 0)
(-5.93323e-12 0 0)
(-9.02982e-13 0 0)
(-1.1819e-12 0 0)
(-9.16298e-13 0 0)
(-3.28869e-12 0 0)
(-2.63932e-12 0 0)
(-1.96789e-12 0 0)
(-1.87388e-12 0 0)
(-2.83009e-12 0 0)
(-2.86677e-12 0 0)
(-1.3264e-12 0 0)
(-2.67241e-12 0 0)
(1.47665e-12 0 0)
(1.29623e-12 0 0)
(1.29756e-12 0 0)
(2.1693e-12 0 0)
(3.55005e-12 0 0)
(2.6857e-12 0 0)
(2.16213e-12 0 0)
(2.26938e-12 0 0)
(4.66008e-12 0 0)
(2.87413e-12 0 0)
(5.46046e-12 0 0)
(-6.94833e-13 0 0)
(2.57227e-12 0 0)
(1.65968e-12 0 0)
(3.06212e-12 0 0)
(-2.71187e-12 0 0)
(-1.66511e-12 0 0)
(-2.42296e-12 0 0)
(-3.14768e-13 0 0)
(8.76968e-13 0 0)
(-1.78152e-12 0 0)
(4.53589e-13 0 0)
(-2.05092e-12 0 0)
(-8.02341e-13 0 0)
(-3.45115e-12 0 0)
(-3.40988e-12 0 0)
(-6.14568e-12 0 0)
(-5.97685e-12 0 0)
(-6.56581e-12 0 0)
(-1.80234e-12 0 0)
(-2.98361e-12 0 0)
(1.70556e-12 0 0)
(2.51234e-12 0 0)
(3.87707e-12 0 0)
(3.97196e-12 0 0)
(7.25792e-12 0 0)
(8.572e-12 0 0)
(6.84949e-12 0 0)
(6.12071e-12 0 0)
(4.10789e-12 0 0)
(3.33238e-12 0 0)
(2.86535e-12 0 0)
(5.46903e-12 0 0)
(2.75017e-12 0 0)
(3.73895e-12 0 0)
(4.15199e-12 0 0)
(4.46273e-12 0 0)
(4.0542e-12 0 0)
(1.93794e-12 0 0)
(1.2755e-12 0 0)
(2.33792e-12 0 0)
(1.84669e-12 0 0)
(-3.12632e-13 0 0)
(2.98877e-12 0 0)
(2.65283e-12 0 0)
(1.00459e-12 0 0)
(1.72499e-12 0 0)
(1.47711e-12 0 0)
(-1.17148e-13 0 0)
(5.70869e-13 0 0)
(1.05819e-12 0 0)
(2.84891e-12 0 0)
(2.4366e-12 0 0)
(5.63809e-12 0 0)
(4.09957e-12 0 0)
(5.53139e-12 0 0)
(5.35888e-12 0 0)
(4.2396e-12 0 0)
(2.92266e-12 0 0)
(2.87169e-12 0 0)
(7.10756e-13 0 0)
(9.67861e-13 0 0)
(-1.29968e-12 0 0)
(-2.26558e-12 0 0)
(3.98067e-14 0 0)
(1.08848e-12 0 0)
(-5.92866e-13 0 0)
(-1.95578e-12 0 0)
(-8.05828e-13 0 0)
(-1.96562e-12 0 0)
(-8.86291e-13 0 0)
(-4.54609e-12 0 0)
(-4.47815e-12 0 0)
(-2.77461e-12 0 0)
(-6.01551e-13 0 0)
(-2.12017e-12 0 0)
(-3.21149e-13 0 0)
(-8.69852e-14 0 0)
(4.83247e-12 0 0)
(2.91901e-12 0 0)
(5.73234e-12 0 0)
(4.50648e-12 0 0)
(2.89323e-12 0 0)
(2.15229e-12 0 0)
(3.66477e-13 0 0)
(-9.27024e-13 0 0)
(8.45606e-13 0 0)
(-1.05686e-12 0 0)
(-2.1919e-12 0 0)
(-4.32447e-13 0 0)
(-7.87096e-13 0 0)
(-2.74311e-12 0 0)
(-5.02039e-12 0 0)
(-3.92215e-12 0 0)
(-2.16665e-12 0 0)
(-4.84368e-13 0 0)
(-3.30188e-12 0 0)
(-5.09771e-12 0 0)
(-4.34716e-12 0 0)
(-2.76164e-12 0 0)
(-1.02503e-12 0 0)
(-1.20277e-13 0 0)
(-1.18255e-12 0 0)
(1.20824e-13 0 0)
(-3.28702e-13 0 0)
(-1.10484e-12 0 0)
(-2.52686e-13 0 0)
(4.3334e-13 0 0)
(5.09292e-13 0 0)
(9.44093e-13 0 0)
(-2.74575e-12 0 0)
(-2.95269e-12 0 0)
(-1.77309e-12 0 0)
(-7.33378e-13 0 0)
(-6.1497e-13 0 0)
(3.95857e-12 0 0)
(5.88224e-13 0 0)
(2.84988e-12 0 0)
(8.42625e-13 0 0)
(-4.72391e-13 0 0)
(-1.12706e-12 0 0)
(-8.35501e-13 0 0)
(1.70355e-13 0 0)
(8.47735e-13 0 0)
(1.56926e-12 0 0)
(2.84724e-13 0 0)
(4.7907e-12 0 0)
(3.34623e-12 0 0)
(3.45941e-12 0 0)
(7.84254e-13 0 0)
(6.55713e-12 0 0)
(2.91442e-12 0 0)
(5.36374e-12 0 0)
(7.09997e-12 0 0)
(5.29551e-12 0 0)
(5.29331e-12 0 0)
(2.15357e-12 0 0)
(1.53755e-12 0 0)
(-1.47553e-12 0 0)
(1.81555e-12 0 0)
(2.06256e-12 0 0)
(-1.738e-12 0 0)
(-9.24463e-13 0 0)
(-1.48697e-12 0 0)
(-2.81304e-12 0 0)
(-8.34399e-13 0 0)
(-1.74459e-12 0 0)
(8.28657e-13 0 0)
(2.91363e-13 0 0)
(-1.76276e-12 0 0)
(2.59192e-12 0 0)
(1.4817e-12 0 0)
(-2.37342e-13 0 0)
(2.64886e-12 0 0)
(-4.65394e-14 0 0)
(1.64425e-12 0 0)
(-1.38313e-12 0 0)
(2.95572e-12 0 0)
(1.77191e-13 0 0)
(1.06181e-12 0 0)
(1.74032e-12 0 0)
(1.32613e-12 0 0)
(4.70215e-12 0 0)
(-1.60479e-13 0 0)
(2.52673e-12 0 0)
(-1.8579e-13 0 0)
(6.70902e-15 0 0)
(1.72527e-13 0 0)
(-2.00199e-17 0 0)
(-4.32058e-13 0 0)
(-1.04162e-12 0 0)
(-7.1674e-13 0 0)
(-2.96461e-13 0 0)
(-8.62296e-13 0 0)
(2.44393e-13 0 0)
(7.80622e-13 0 0)
(7.54701e-13 0 0)
(-1.77491e-12 0 0)
(-2.04395e-12 0 0)
(2.84967e-12 0 0)
(9.70847e-13 0 0)
(-8.08533e-13 0 0)
(-1.43512e-12 0 0)
(-5.3221e-12 0 0)
(-3.12293e-12 0 0)
(-2.69292e-12 0 0)
(-2.13676e-12 0 0)
(-2.71458e-12 0 0)
(-7.33548e-13 0 0)
(-9.12384e-13 0 0)
(-3.93714e-13 0 0)
(-2.29833e-13 0 0)
(3.43805e-13 0 0)
(1.28251e-12 0 0)
(-1.70638e-12 0 0)
(-1.23233e-12 0 0)
(-4.0978e-12 0 0)
(-2.16872e-12 0 0)
(-2.91724e-12 0 0)
(8.40926e-13 0 0)
(1.09186e-12 0 0)
(1.10499e-12 0 0)
(3.37435e-12 0 0)
(2.59403e-12 0 0)
(2.57434e-12 0 0)
(5.88177e-12 0 0)
(3.17246e-12 0 0)
(4.32558e-12 0 0)
(3.66856e-12 0 0)
(8.21291e-13 0 0)
(2.649e-12 0 0)
(4.67243e-13 0 0)
(-3.46343e-18 0 0)
(1.68075e-15 0 0)
(-1.56797e-15 0 0)
(5.03994e-13 0 0)
(1.2672e-12 0 0)
(-1.77105e-12 0 0)
(-2.33966e-16 0 0)
(-2.05851e-17 0 0)
(-3.0636e-21 0 0)
(-1.31192e-22 0 0)
(-6.93033e-23 0 0)
(-1.88625e-21 0 0)
(-1.02055e-17 0 0)
(-6.81377e-15 0 0)
(-1.19197e-12 0 0)
(-5.41091e-13 0 0)
(-5.81078e-13 0 0)
(2.09126e-12 0 0)
(9.9991e-13 0 0)
(-7.70007e-13 0 0)
(-4.14546e-17 0 0)
(8.70496e-13 0 0)
(-2.00555e-14 0 0)
(1.27461e-12 0 0)
(2.93085e-13 0 0)
(-7.45489e-13 0 0)
(1.29699e-16 0 0)
(1.67016e-15 0 0)
(-1.5877e-16 0 0)
(-1.67407e-12 0 0)
(1.67241e-12 0 0)
(-3.97035e-13 0 0)
(-1.60705e-12 0 0)
(3.31281e-13 0 0)
(8.50393e-18 0 0)
(2.34905e-18 0 0)
(1.1187e-17 0 0)
(1.34116e-16 0 0)
(8.78875e-13 0 0)
(1.59061e-21 0 0)
(-8.78867e-13 0 0)
(-3.62189e-17 0 0)
(1.11969e-13 0 0)
(-1.91637e-23 0 0)
(-1.11969e-13 0 0)
(3.38975e-17 0 0)
(8.70502e-13 0 0)
(-2.00554e-14 0 0)
(1.27461e-12 0 0)
(2.93085e-13 0 0)
(-7.45489e-13 0 0)
(1.29699e-16 0 0)
(1.67016e-15 0 0)
(-1.5877e-16 0 0)
(-1.67407e-12 0 0)
(1.67241e-12 0 0)
(-3.97035e-13 0 0)
(-1.60705e-12 0 0)
(3.31281e-13 0 0)
(8.50394e-18 0 0)
(2.34926e-18 0 0)
(1.43621e-17 0 0)
(1.71691e-16 0 0)
(1.66252e-12 0 0)
(1.65917e-13 0 0)
(1.40017e-12 0 0)
(2.90895e-12 0 0)
(6.89425e-13 0 0)
(8.74189e-14 0 0)
(1.23247e-12 0 0)
(5.70023e-14 0 0)
(1.52683e-12 0 0)
(-2.42627e-12 0 0)
(-3.23183e-12 0 0)
(-3.07446e-12 0 0)
(2.206e-13 0 0)
(2.49657e-13 0 0)
(1.00501e-12 0 0)
(1.58737e-12 0 0)
(7.01759e-13 0 0)
(-6.48231e-13 0 0)
(-1.36152e-12 0 0)
(4.32135e-13 0 0)
(4.80765e-13 0 0)
(1.8234e-12 0 0)
(2.294e-13 0 0)
(-2.2751e-13 0 0)
(-1.8989e-12 0 0)
(-1.28977e-12 0 0)
(-8.54108e-13 0 0)
(-1.44822e-12 0 0)
(-1.56442e-16 0 0)
(-1.29603e-17 0 0)
(-7.82999e-23 0 0)
(1.12734e-17 0 0)
(1.35153e-16 0 0)
(8.8892e-13 0 0)
(-4.82985e-28 0 0)
(-8.8892e-13 0 0)
(-1.35153e-16 0 0)
(-1.12734e-17 0 0)
(1.26188e-19 0 0)
(2.00516e-18 0 0)
(2.21066e-13 0 0)
(6.23123e-13 0 0)
(8.28658e-13 0 0)
(6.81365e-13 0 0)
(7.54106e-13 0 0)
(-2.67968e-13 0 0)
(9.66129e-14 0 0)
(-4.99466e-14 0 0)
(1.1707e-12 0 0)
(-3.55054e-13 0 0)
(-2.19725e-12 0 0)
(-2.52947e-13 0 0)
(-1.25232e-12 0 0)
(-1.36057e-16 0 0)
(-1.13245e-17 0 0)
(-1.78572e-21 0 0)
(-7.45204e-23 0 0)
(-1.2293e-26 0 0)
(-3.42281e-28 0 0)
(-5.83485e-32 0 0)
(-1.2194e-33 0 0)
(-2.13501e-37 0 0)
(-4.91491e-39 0 0)
(-1.80289e-35 0 0)
(-8.64406e-34 0 0)
(-1.21121e-29 0 0)
(-4.3565e-28 0 0)
(-6.52455e-24 0 0)
(-1.56494e-22 0 0)
(-2.64212e-18 0 0)
(-3.1695e-17 0 0)
(-7.15007e-13 0 0)
(1.51553e-15 0 0)
(-9.47358e-13 0 0)
(1.67076e-12 0 0)
(-9.886e-15 0 0)
(1.4469e-17 0 0)
(1.54913e-21 0 0)
(7.02177e-21 0 0)
(1.95707e-19 0 0)
(8.20585e-14 0 0)
(7.70338e-13 0 0)
(4.18827e-12 0 0)
(1.68502e-11 0 0)
(6.31322e-11 0 0)
(2.21206e-10 0 0)
(7.53017e-10 0 0)
(2.51322e-09 0 0)
(8.21337e-09 0 0)
(2.63094e-08 0 0)
(8.26155e-08 0 0)
(2.5421e-07 0 0)
(7.66108e-07 0 0)
(2.25998e-06 0 0)
(6.52183e-06 0 0)
(1.83989e-05 0 0)
(5.07063e-05 0 0)
(0.000136408 0 0)
(0.000357899 0 0)
(0.000915005 0 0)
(0.00227715 0 0)
(0.00551037 0 0)
(0.0129497 0 0)
(0.0295138 0 0)
(0.0651348 0 0)
(0.138955 0 0)
(0.286006 0 0)
(0.566698 0 0)
(1.07809 0 0)
(1.96284 0 0)
(3.40526 0 0)
(5.58361 0 0)
(8.56718 0 0)
(12.313 0 0)
(16.7566 0 0)
(21.8212 0 0)
(27.4049 0 0)
(33.4007 0 0)
(39.7123 0 0)
(46.2603 0 0)
(52.983 0 0)
(59.8328 0 0)
(66.7728 0 0)
(73.7737 0 0)
(80.8112 0 0)
(87.8642 0 0)
(94.9136 0 0)
(101.941 0 0)
(108.928 0 0)
(115.856 0 0)
(122.705 0 0)
(129.454 0 0)
(136.078 0 0)
(142.552 0 0)
(148.844 0 0)
(154.93 0 0)
(160.754 0 0)
(166.312 0 0)
(171.522 0 0)
(176.361 0 0)
(180.797 0 0)
(184.774 0 0)
(188.275 0 0)
(191.252 0 0)
(193.696 0 0)
(195.621 0 0)
(197.057 0 0)
(198.043 0 0)
(198.642 0 0)
(198.954 0 0)
(199.076 0 0)
(199.107 0 0)
(199.11 0 0)
(199.095 0 0)
(199.058 0 0)
(198.983 0 0)
(198.883 0 0)
(198.777 0 0)
(198.684 0 0)
(198.629 0 0)
(198.604 0 0)
(198.589 0 0)
(198.58 0 0)
(198.58 0 0)
(198.582 0 0)
(198.58 0 0)
(198.574 0 0)
(198.565 0 0)
(198.572 0 0)
(198.607 0 0)
(198.676 0 0)
(198.855 0 0)
(199.179 0 0)
(199.195 0 0)
(198.819 0 0)
(198.533 0 0)
(198.422 0 0)
(198.414 0 0)
(198.398 0 0)
(198.346 0 0)
(198.3 0 0)
(198.303 0 0)
(198.305 0 0)
(198.256 0 0)
(198.186 0 0)
(198.139 0 0)
(198.124 0 0)
(198.081 0 0)
(197.973 0 0)
(197.86 0 0)
(197.784 0 0)
(197.721 0 0)
(197.593 0 0)
(197.4 0 0)
(197.222 0 0)
(197.082 0 0)
(196.941 0 0)
(196.667 0 0)
(196.296 0 0)
(195.999 0 0)
(195.782 0 0)
(195.425 0 0)
(194.73 0 0)
(193.983 0 0)
(193.148 0 0)
(191.652 0 0)
(188.684 0 0)
(181.112 0 0)
(156.06 0 0)
(93.3088 0 0)
(30.2043 0 0)
(7.84026 0 0)
(1.89189 0 0)
(0.446371 0 0)
(0.104713 0 0)
(0.0245334 0 0)
(0.00574503 0 0)
(0.00134465 0 0)
(0.000314535 0 0)
(7.35217e-05 0 0)
(1.71702e-05 0 0)
(4.00544e-06 0 0)
(9.33072e-07 0 0)
(2.16985e-07 0 0)
(5.03539e-08 0 0)
(1.1656e-08 0 0)
(2.69186e-09 0 0)
(6.18781e-10 0 0)
(1.41937e-10 0 0)
(3.18183e-11 0 0)
(7.06742e-12 0 0)
(1.4366e-12 0 0)
(-1.2389e-12 0 0)
(9.60488e-13 0 0)
(-2.51878e-13 0 0)
(-3.39503e-16 0 0)
(6.58211e-16 0 0)
(1.67145e-12 0 0)
(7.41637e-16 0 0)
(5.98729e-16 0 0)
(1.02638e-12 0 0)
(-1.14485e-12 0 0)
(3.5296e-13 0 0)
(-9.52861e-13 0 0)
(9.18442e-14 0 0)
(5.86753e-13 0 0)
(3.9493e-14 0 0)
(2.95813e-13 0 0)
(-9.1854e-13 0 0)
(2.85369e-13 0 0)
(8.02954e-13 0 0)
(9.16875e-13 0 0)
(1.35215e-12 0 0)
(-1.08043e-12 0 0)
(-7.92659e-13 0 0)
(3.39689e-13 0 0)
(-6.43038e-13 0 0)
(2.15594e-13 0 0)
(-1.12708e-13 0 0)
(-1.38127e-12 0 0)
(3.44652e-13 0 0)
(-2.44146e-12 0 0)
(-1.7785e-12 0 0)
(-1.71643e-12 0 0)
(-4.72346e-13 0 0)
(-1.81258e-13 0 0)
(-4.13067e-13 0 0)
(2.78268e-14 0 0)
(-4.42616e-13 0 0)
(2.03302e-13 0 0)
(2.47334e-12 0 0)
(-2.0945e-13 0 0)
(-9.97079e-13 0 0)
(1.02301e-12 0 0)
(-3.40244e-13 0 0)
(-8.15519e-14 0 0)
(2.25729e-12 0 0)
(2.62628e-12 0 0)
(-1.394e-12 0 0)
(7.09763e-13 0 0)
(4.92446e-13 0 0)
(7.43747e-13 0 0)
(1.02614e-12 0 0)
(-6.98832e-14 0 0)
(-4.5573e-13 0 0)
(-1.90893e-12 0 0)
(-2.78119e-13 0 0)
(-4.95962e-13 0 0)
(-1.68428e-12 0 0)
(-1.87104e-12 0 0)
(-2.00875e-12 0 0)
(-1.15769e-13 0 0)
(4.92858e-13 0 0)
(-2.1495e-12 0 0)
(-1.34443e-12 0 0)
(3.00062e-12 0 0)
(-9.57718e-13 0 0)
(-2.9005e-13 0 0)
(-1.35238e-12 0 0)
(-1.516e-12 0 0)
(-1.47587e-12 0 0)
(-3.51105e-13 0 0)
(3.25087e-12 0 0)
(1.2092e-12 0 0)
(1.30553e-12 0 0)
(1.52859e-12 0 0)
(-1.01555e-12 0 0)
(-6.15433e-13 0 0)
(1.05889e-12 0 0)
(-1.26555e-15 0 0)
(-2.93681e-12 0 0)
(4.5305e-13 0 0)
(6.55083e-13 0 0)
(-1.00464e-12 0 0)
(-2.13825e-13 0 0)
(-2.0745e-12 0 0)
(-1.74503e-12 0 0)
(-1.78969e-12 0 0)
(1.67687e-12 0 0)
(-2.02894e-13 0 0)
(3.78061e-12 0 0)
(2.07905e-12 0 0)
(3.91832e-13 0 0)
(-1.66754e-12 0 0)
(-1.25249e-12 0 0)
(-6.11177e-13 0 0)
(4.06664e-13 0 0)
(2.55022e-12 0 0)
(-5.67953e-13 0 0)
(6.30573e-13 0 0)
(2.11568e-13 0 0)
(5.66444e-13 0 0)
(-1.43954e-12 0 0)
(-5.15554e-13 0 0)
(-2.12537e-12 0 0)
(-2.62919e-12 0 0)
(2.3661e-13 0 0)
(9.43467e-13 0 0)
(-1.2351e-12 0 0)
(1.62772e-12 0 0)
(1.41814e-12 0 0)
(-1.72623e-12 0 0)
(2.0603e-13 0 0)
(7.65694e-15 0 0)
(-1.01509e-12 0 0)
(3.08727e-12 0 0)
(1.34056e-12 0 0)
(7.16674e-13 0 0)
(-3.79671e-13 0 0)
(-4.23262e-13 0 0)
(2.89178e-13 0 0)
(1.78968e-12 0 0)
(8.22791e-13 0 0)
(-2.87402e-13 0 0)
(7.32369e-14 0 0)
(-8.7462e-13 0 0)
(2.17951e-12 0 0)
(1.31969e-12 0 0)
(3.28487e-12 0 0)
(1.15827e-12 0 0)
(-2.63199e-13 0 0)
(-1.37864e-12 0 0)
(-5.0371e-13 0 0)
(6.58157e-13 0 0)
(-3.61108e-17 0 0)
(-2.6532e-18 0 0)
(-7.0574e-21 0 0)
(1.15368e-19 0 0)
(1.26643e-18 0 0)
(1.67024e-15 0 0)
(-1.67876e-15 0 0)
(-1.30614e-16 0 0)
(-6.39795e-13 0 0)
(-1.21667e-12 0 0)
(9.11461e-13 0 0)
(1.00423e-12 0 0)
(-1.06912e-13 0 0)
(4.71169e-14 0 0)
(5.90149e-16 0 0)
(1.11071e-14 0 0)
(-1.82698e-12 0 0)
(5.055e-13 0 0)
(-9.07684e-13 0 0)
(-3.58764e-15 0 0)
(5.46795e-13 0 0)
(-8.41546e-14 0 0)
(1.99096e-12 0 0)
(3.94148e-13 0 0)
(-6.25775e-13 0 0)
(-1.98543e-16 0 0)
(-1.67787e-17 0 0)
(-8.5998e-21 0 0)
(1.15311e-19 0 0)
(1.26671e-18 0 0)
(1.67272e-15 0 0)
(-1.63503e-15 0 0)
(3.76795e-13 0 0)
(1.20734e-12 0 0)
(5.72686e-13 0 0)
(-1.59565e-12 0 0)
(1.67092e-12 0 0)
(1.3901e-14 0 0)
(1.37393e-12 0 0)
(-6.90341e-14 0 0)
(-2.0679e-12 0 0)
(1.23884e-14 0 0)
(-1.38052e-12 0 0)
(-3.60485e-13 0 0)
(-1.64783e-12 0 0)
(2.72056e-13 0 0)
(-8.41709e-14 0 0)
(1.99096e-12 0 0)
(3.40562e-13 0 0)
(-6.25775e-13 0 0)
(-1.98602e-16 0 0)
(-1.67786e-17 0 0)
(-8.59985e-21 0 0)
(1.15302e-19 0 0)
(1.2665e-18 0 0)
(1.67024e-15 0 0)
(-1.67024e-15 0 0)
(-1.26928e-18 0 0)
(-1.40317e-19 0 0)
(-3.23472e-17 0 0)
(-4.22939e-16 0 0)
(4.40174e-14 0 0)
(-7.92243e-13 0 0)
(1.82098e-12 0 0)
(-1.0542e-12 0 0)
(-1.1085e-12 0 0)
(-6.05106e-13 0 0)
(3.84673e-13 0 0)
(-1.73362e-12 0 0)
(1.21129e-12 0 0)
(5.50127e-13 0 0)
(-5.98511e-13 0 0)
(8.35766e-14 0 0)
(-4.36573e-15 0 0)
(1.8424e-12 0 0)
(-5.57652e-13 0 0)
(-1.48531e-12 0 0)
(-1.37854e-12 0 0)
(-2.47061e-13 0 0)
(9.16379e-16 0 0)
(7.73148e-13 0 0)
(7.02566e-13 0 0)
(1.73978e-12 0 0)
(4.12077e-13 0 0)
(-6.09071e-18 0 0)
(-4.21757e-16 0 0)
(4.40174e-14 0 0)
(-7.92243e-13 0 0)
(1.82098e-12 0 0)
(-1.0542e-12 0 0)
(-1.1085e-12 0 0)
(-6.05106e-13 0 0)
(3.84673e-13 0 0)
(-1.73362e-12 0 0)
(1.21129e-12 0 0)
(6.05389e-13 0 0)
(-5.98508e-13 0 0)
(2.49357e-13 0 0)
(-6.46527e-14 0 0)
(1.64152e-12 0 0)
(5.43534e-17 0 0)
(-1.97638e-13 0 0)
(9.35405e-15 0 0)
(-1.48215e-12 0 0)
(3.90951e-16 0 0)
(1.48301e-12 0 0)
(2.08235e-13 0 0)
(-2.09947e-14 0 0)
(-9.31238e-13 0 0)
(-8.22657e-13 0 0)
(-6.29284e-13 0 0)
(-3.43013e-13 0 0)
(-1.52023e-12 0 0)
(2.13588e-12 0 0)
(-2.20673e-12 0 0)
(1.23167e-12 0 0)
(-1.18626e-13 0 0)
(-2.45289e-12 0 0)
(-8.03844e-13 0 0)
(-1.99967e-12 0 0)
(6.30149e-13 0 0)
(2.43937e-12 0 0)
(9.63035e-13 0 0)
(1.33732e-12 0 0)
(6.33141e-13 0 0)
(1.76374e-14 0 0)
(-3.65358e-12 0 0)
(8.22019e-13 0 0)
(2.91548e-13 0 0)
(-8.33157e-13 0 0)
(3.30825e-12 0 0)
(2.70331e-12 0 0)
(2.03457e-13 0 0)
(-1.39674e-12 0 0)
(-7.23866e-13 0 0)
(-6.64451e-13 0 0)
(-3.43013e-13 0 0)
(-1.52023e-12 0 0)
(2.13588e-12 0 0)
(-2.20673e-12 0 0)
(1.23167e-12 0 0)
(-1.18626e-13 0 0)
(-2.45289e-12 0 0)
(-8.03844e-13 0 0)
(-1.99967e-12 0 0)
(6.30149e-13 0 0)
(2.43937e-12 0 0)
(9.63035e-13 0 0)
(1.33732e-12 0 0)
(6.33141e-13 0 0)
(1.76374e-14 0 0)
(-3.65358e-12 0 0)
(8.22019e-13 0 0)
(2.91548e-13 0 0)
(-8.33157e-13 0 0)
(3.30825e-12 0 0)
(2.70331e-12 0 0)
(2.03457e-13 0 0)
(-1.39674e-12 0 0)
(-7.23866e-13 0 0)
(-6.64451e-13 0 0)
(-3.43013e-13 0 0)
(-1.52023e-12 0 0)
(2.13588e-12 0 0)
(-2.20673e-12 0 0)
(1.23167e-12 0 0)
(-1.18626e-13 0 0)
(-2.45289e-12 0 0)
(-8.0552e-13 0 0)
(-2.12694e-12 0 0)
(2.65078e-13 0 0)
(2.13625e-12 0 0)
(-3.78324e-13 0 0)
(1.80136e-13 0 0)
(-2.16048e-13 0 0)
(-4.03284e-12 0 0)
(-3.06803e-12 0 0)
(-1.12407e-13 0 0)
(-1.74296e-12 0 0)
(-3.02217e-12 0 0)
(-8.89224e-13 0 0)
(-1.60197e-12 0 0)
(-3.91383e-12 0 0)
(-2.07625e-12 0 0)
(1.09189e-12 0 0)
(-1.83575e-12 0 0)
(-1.84272e-12 0 0)
(-9.56038e-13 0 0)
(-1.01656e-12 0 0)
(-1.09418e-12 0 0)
(2.17165e-14 0 0)
(-7.25063e-13 0 0)
(-3.29856e-13 0 0)
(-1.30028e-12 0 0)
(-2.53276e-12 0 0)
(-1.66858e-12 0 0)
(2.11632e-12 0 0)
(3.61182e-13 0 0)
(-2.8298e-13 0 0)
(3.87271e-12 0 0)
(4.71525e-12 0 0)
(3.02136e-12 0 0)
(2.74353e-12 0 0)
(5.8452e-12 0 0)
(1.34452e-12 0 0)
(4.24788e-12 0 0)
(6.24216e-14 0 0)
(8.15506e-13 0 0)
(2.02202e-12 0 0)
(2.55906e-12 0 0)
(7.85626e-13 0 0)
(-2.22647e-13 0 0)
(1.27243e-12 0 0)
(7.60692e-13 0 0)
(1.71948e-12 0 0)
(1.89431e-13 0 0)
(1.24754e-12 0 0)
(5.53017e-14 0 0)
(4.25949e-18 0 0)
(-1.67145e-15 0 0)
(-1.38101e-18 0 0)
(-1.15642e-19 0 0)
(-1.84605e-22 0 0)
(-2.09628e-21 0 0)
(-1.8189e-17 0 0)
(-2.29171e-16 0 0)
(1.12904e-12 0 0)
(7.48757e-13 0 0)
(1.06228e-12 0 0)
(1.62118e-12 0 0)
(-2.35512e-12 0 0)
(-1.81987e-12 0 0)
(-1.52975e-13 0 0)
(7.15341e-14 0 0)
(-5.02534e-15 0 0)
(-2.99351e-13 0 0)
(-1.82856e-16 0 0)
(-1.52801e-17 0 0)
(-1.18899e-20 0 0)
(-4.03579e-22 0 0)
(1.15758e-19 0 0)
(1.38217e-18 0 0)
(1.67151e-15 0 0)
(1.61358e-21 0 0)
(-1.67151e-15 0 0)
(-1.38102e-18 0 0)
(-1.15642e-19 0 0)
(-1.84605e-22 0 0)
(-2.09628e-21 0 0)
(-1.8189e-17 0 0)
(-2.29171e-16 0 0)
(1.12904e-12 0 0)
(7.48757e-13 0 0)
(1.06228e-12 0 0)
(1.62118e-12 0 0)
(-2.35512e-12 0 0)
(-1.81987e-12 0 0)
(-1.52975e-13 0 0)
(7.15341e-14 0 0)
(-5.02534e-15 0 0)
(-2.99351e-13 0 0)
(-1.82856e-16 0 0)
(-1.52801e-17 0 0)
(-1.18899e-20 0 0)
(-4.03579e-22 0 0)
(1.15758e-19 0 0)
(1.38217e-18 0 0)
(1.67151e-15 0 0)
(1.61358e-21 0 0)
(-1.67151e-15 0 0)
(-1.38102e-18 0 0)
(-1.15643e-19 0 0)
(-2.21129e-22 0 0)
(-8.48338e-19 0 0)
(-3.53537e-17 0 0)
(-4.82594e-13 0 0)
(-1.55537e-12 0 0)
(-1.03983e-12 0 0)
(-1.49786e-12 0 0)
(2.53547e-12 0 0)
(-2.1316e-13 0 0)
(1.87116e-13 0 0)
(-2.70998e-13 0 0)
(2.10178e-13 0 0)
(3.59425e-12 0 0)
(3.58068e-12 0 0)
(3.60714e-12 0 0)
(7.88356e-12 0 0)
(8.28411e-12 0 0)
(9.68461e-12 0 0)
(8.87047e-12 0 0)
)
;

boundaryField
{
    sides
    {
        type            zeroGradient;
    }
    empty
    {
        type            empty;
    }
}


// ************************************************************************* //
