/*--------------------------------*- C++ -*----------------------------------*\
| =========                 |                                                 |
| \\      /  F ield         | OpenFOAM: The Open Source CFD Toolbox           |
|  \\    /   O peration     | Version:  4.1                                   |
|   \\  /    A nd           | Web:      www.OpenFOAM.org                      |
|    \\/     M anipulation  |                                                 |
\*---------------------------------------------------------------------------*/
FoamFile
{
    version     2.0;
    format      ascii;
    class       surfaceScalarField;
    location    "0.0002";
    object      phi;
}
// * * * * * * * * * * * * * * * * * * * * * * * * * * * * * * * * * * * * * //

dimensions      [1 0 -1 0 0 0 0];

internalField   nonuniform List<scalar> 
999
(
-2.16716e-12
-1.89004e-12
2.18847e-12
5.09459e-12
3.19744e-12
5.47118e-13
-1.12266e-12
-5.25802e-13
-5.04485e-13
-1.00897e-12
1.13687e-12
-2.62901e-13
-6.62936e-12
-5.14433e-12
-3.76588e-13
-4.61853e-13
-1.88294e-12
1.11555e-12
9.45022e-13
2.68585e-12
5.32907e-12
-4.26326e-13
-6.79279e-12
-2.02505e-12
-1.88294e-12
-1.6982e-12
1.01608e-12
2.66454e-12
8.61888e-12
5.96856e-12
3.90799e-13
-1.12266e-12
-5.25802e-13
-5.04485e-13
-1.00897e-12
1.13687e-12
-2.62901e-13
-6.62936e-12
-5.14433e-12
-3.76588e-13
-4.61853e-13
-1.88294e-12
1.11555e-12
9.45022e-13
2.68585e-12
5.32907e-12
-4.26326e-13
-6.79279e-12
-2.02505e-12
-1.88294e-12
-1.6982e-12
1.01608e-12
2.66454e-12
8.61888e-12
5.96856e-12
3.90799e-13
-1.12266e-12
-5.25802e-13
-5.04485e-13
-1.00897e-12
1.13687e-12
-2.62901e-13
-6.62936e-12
-5.14433e-12
-3.76588e-13
-4.61853e-13
-1.88294e-12
1.11555e-12
9.45022e-13
2.68585e-12
5.32907e-12
-4.26326e-13
-6.79279e-12
-2.02505e-12
-1.88294e-12
-1.6982e-12
1.01608e-12
2.66454e-12
8.61888e-12
5.96856e-12
3.90799e-13
-1.12266e-12
-5.25802e-13
-5.47118e-13
-1.59872e-12
-1.68399e-12
-6.87095e-12
-9.94049e-12
-7.56728e-12
-4.95248e-12
3.19744e-12
3.85114e-12
-1.39977e-12
-1.56319e-12
2.99138e-12
9.35074e-12
1.03597e-11
6.06093e-12
1.45661e-12
7.10543e-14
7.10543e-15
-1.63425e-13
-4.40536e-13
-3.58824e-12
-9.10205e-12
-9.43601e-12
-2.87059e-12
3.19744e-13
8.25651e-12
9.23706e-12
6.85674e-12
2.84217e-12
7.17648e-13
-1.22213e-12
-1.07292e-12
-1.0445e-12
-1.27898e-12
5.18696e-13
1.6982e-12
1.98241e-12
-1.00897e-12
-1.59872e-12
7.31859e-13
1.28608e-12
-6.60805e-13
-5.25802e-13
-1.63425e-13
-4.40536e-13
-3.58824e-12
-9.10205e-12
-9.43601e-12
-2.87059e-12
3.19744e-13
8.25651e-12
9.23706e-12
6.85674e-12
2.84217e-12
7.17648e-13
-1.22213e-12
-1.07292e-12
-1.0445e-12
-1.27898e-12
5.18696e-13
1.6982e-12
1.98241e-12
-1.00897e-12
-1.59872e-12
7.31859e-13
1.28608e-12
-6.60805e-13
-5.25802e-13
-1.63425e-13
-4.40536e-13
-3.58824e-12
-9.10205e-12
-9.43601e-12
-2.87059e-12
3.19744e-13
8.25651e-12
9.23706e-12
6.85674e-12
2.84217e-12
7.17648e-13
-1.22213e-12
-1.07292e-12
-1.0445e-12
-1.27898e-12
5.18696e-13
1.6982e-12
1.98241e-12
-1.00897e-12
-1.59872e-12
7.31859e-13
1.28608e-12
-6.60805e-13
-5.25802e-13
-1.42109e-14
6.39488e-13
-1.81188e-12
-8.95994e-12
-9.96181e-12
-3.86535e-12
-5.18696e-13
5.20828e-12
1.17097e-11
8.59757e-12
1.44951e-12
-4.54747e-13
-1.76925e-12
-4.33431e-13
5.32907e-13
0
-6.89226e-13
-2.95586e-12
-2.13873e-12
2.79954e-12
2.6219e-12
3.33955e-13
1.42109e-14
0
-5.18696e-13
-2.98428e-13
1.86162e-12
2.05347e-12
-1.5774e-12
-1.48503e-12
-5.25802e-13
0
6.60805e-13
1.0445e-12
1.25766e-12
-1.35003e-13
-5.68434e-13
-1.76925e-12
-4.33431e-13
5.32907e-13
0
-6.89226e-13
-2.95586e-12
-2.13873e-12
2.79954e-12
2.6219e-12
3.33955e-13
1.42109e-14
0
-5.18696e-13
-2.84217e-13
1.7053e-12
1.59162e-12
-1.62004e-12
-1.69109e-12
2.98428e-13
5.25802e-13
0
1.08002e-12
1.25766e-12
-1.26477e-12
-1.05871e-12
0
0
0
0
0
0
-5.47118e-13
0
7.81597e-14
-4.17089e-12
-2.13873e-12
6.11777e-12
5.53513e-12
-2.19558e-12
-9.73444e-13
-6.6791e-13
-1.08002e-12
0
0
0
7.10543e-15
4.83169e-13
1.3145e-12
-6.46594e-13
-1.05871e-12
0
0
0
0
0
0
-5.47118e-13
-1.44951e-12
-1.62004e-12
-2.03926e-12
-1.71241e-12
6.4091e-12
5.06617e-12
-1.40687e-12
-6.39488e-13
-6.6791e-13
-1.08002e-12
0
0
0
7.10543e-15
4.83169e-13
1.3145e-12
-6.46594e-13
-1.05871e-12
0
0
0
0
0
0
0
-5.18696e-13
-6.11067e-13
6.11067e-13
1.61293e-12
6.53699e-13
-1.26477e-12
-5.18696e-13
5.18696e-13
6.89226e-13
-6.6791e-13
-5.18696e-13
5.18696e-13
6.6791e-13
-1.42109e-14
1.42109e-14
-5.47118e-13
-7.10543e-15
1.29319e-12
-6.75016e-13
-1.05871e-12
0
0
0
0
5.18696e-13
6.75016e-13
-6.75016e-13
-5.18696e-13
5.18696e-13
6.89226e-13
-6.6791e-13
-5.18696e-13
5.18696e-13
6.89226e-13
-6.6791e-13
-5.18696e-13
5.18696e-13
6.6791e-13
-1.42109e-14
1.42109e-14
-5.47118e-13
-7.10543e-15
1.29319e-12
-6.75016e-13
-1.05871e-12
0
0
0
0
5.18696e-13
6.75016e-13
-6.75016e-13
-5.18696e-13
1.05871e-12
6.75016e-13
-1.28608e-12
-5.18696e-13
1.07292e-12
6.6791e-13
-1.25766e-12
-5.18696e-13
1.05871e-12
6.75016e-13
-1.27187e-12
-5.18696e-13
0
5.25802e-13
1.29319e-12
-6.75016e-13
-1.07292e-12
1.05871e-12
6.75016e-13
-1.26477e-12
-5.18696e-13
5.18696e-13
6.75016e-13
-6.75016e-13
-5.18696e-13
0
0
0
0
5.25802e-13
6.89226e-13
-6.6791e-13
-5.18696e-13
0
0
0
0
0
5.25802e-13
1.27898e-12
-6.75016e-13
-1.08002e-12
1.05871e-12
6.75016e-13
-1.26477e-12
-5.18696e-13
5.18696e-13
6.75016e-13
-6.75016e-13
-5.18696e-13
0
0
0
0
0
0
0
0
0
0
0
0
0
0
0
0
0
0
0
-5.47118e-13
7.10543e-15
5.32907e-13
0
0
0
0
0
0
0
0
0
0
0
0
0
0
0
0
0
0
0
0
0
0
-5.54223e-13
0
5.47118e-13
0
0
0
0
0
0
1.42109e-12
1.59872e-12
-1.5774e-12
-1.42109e-12
0
0
1.84031e-12
1.56319e-12
-1.39977e-12
-8.2423e-13
-7.10543e-15
-5.11591e-13
1.39977e-12
2.359e-12
-2.3519e-12
-1.9682e-12
0
0
9.9476e-14
1.53477e-12
1.36495e-11
1.06837e-10
7.71415e-10
5.39237e-09
3.5798e-08
2.3e-07
1.40072e-06
8.21262e-06
4.5468e-05
0.000240699
0.00119733
0.00564552
0.0248493
0.102491
0.390848
1.37431
4.39605
12.6212
31.8249
66.613
117.278
178.669
241.698
297.751
340.638
373.608
393.964
399.204
406.119
411.653
412.433
385.258
321.61
287.56
273.558
267.666
264.485
260.111
242.278
138.211
38.5835
8.93966
1.85135
0.364779
0.0698165
0.0130394
0.00237176
0.000420443
7.23049e-05
1.20818e-05
1.95052e-06
3.0534e-07
4.60702e-08
6.73788e-09
9.49157e-10
1.29731e-10
1.70903e-11
2.02149e-12
1.40332e-13
7.10543e-15
0
2.80664e-13
7.51399e-13
3.25073e-13
-4.86722e-13
7.28306e-14
1.58096e-13
7.69163e-13
2.64677e-13
-1.0818e-12
-8.65086e-13
-1.95399e-13
-4.61853e-14
4.49418e-13
5.15143e-13
-5.40012e-13
-4.29878e-13
0
0
0
0
0
0
0
0
1.29674e-13
1.68754e-13
-5.32907e-15
5.32907e-15
1.22569e-13
1.72307e-13
-1.68754e-13
-1.20792e-13
-7.10543e-15
1.68754e-13
-1.66978e-13
-2.64677e-13
2.64677e-13
1.66978e-13
-3.16192e-13
-1.29674e-13
1.29674e-13
1.68754e-13
-1.72307e-13
-1.29674e-13
1.29674e-13
1.68754e-13
-1.72307e-13
-1.29674e-13
0
1.29674e-13
1.56319e-13
-3.55271e-15
1.68754e-13
-5.32907e-15
3.55271e-15
-5.32907e-15
-1.20792e-13
1.20792e-13
5.32907e-15
-3.23297e-13
-1.29674e-13
2.64677e-13
1.66978e-13
-3.16192e-13
-1.29674e-13
2.64677e-13
3.17968e-13
-3.17968e-13
-2.70006e-13
0
-1.77636e-15
1.77636e-15
0
0
-1.77636e-15
1.77636e-15
0
0
-5.86198e-14
0
-3.67706e-13
-3.55271e-13
5.1692e-13
2.84217e-13
1.77636e-15
0
-1.29674e-13
-6.85674e-13
-2.57572e-13
7.88702e-13
4.29878e-13
-8.34888e-14
-5.15143e-14
0
0
-1.77636e-15
1.77636e-15
0
0
-1.77636e-15
1.77636e-15
0
-1.22569e-13
-1.74083e-13
1.61648e-13
1.35003e-13
-3.42837e-13
-5.27578e-13
4.10338e-13
4.47642e-13
0
-1.29674e-13
-6.92779e-13
-2.45137e-13
6.98108e-13
3.49942e-13
-1.77636e-15
1.77636e-15
0
0
-1.77636e-15
0
-2.85993e-13
-5.18696e-13
3.42837e-13
4.51195e-13
0
0
-1.77636e-15
1.77636e-15
0
-3.42837e-13
-5.31131e-13
4.20997e-13
4.47642e-13
1.19016e-13
-1.54543e-13
-7.83373e-13
-2.36255e-13
7.69163e-13
3.21521e-13
-2.4869e-14
1.77636e-15
0
0
-1.77636e-15
1.77636e-15
-2.89546e-13
-5.18696e-13
3.42837e-13
4.51195e-13
0
0
-1.77636e-15
1.77636e-15
0
-3.42837e-13
-5.31131e-13
4.20997e-13
4.47642e-13
1.19016e-13
-1.54543e-13
-7.83373e-13
-2.36255e-13
7.69163e-13
3.21521e-13
-2.4869e-14
1.77636e-15
0
0
0
-1.29674e-13
-1.38556e-13
1.38556e-13
1.35003e-13
0
0
0
0
0
-1.77636e-15
3.55271e-15
0
-5.32907e-15
1.77636e-15
0
0
-1.29674e-13
-1.38556e-13
1.29674e-13
1.66978e-13
-5.32907e-15
0
0
-2.70006e-13
-3.25073e-13
1.65201e-13
1.33227e-13
1.54543e-13
1.35003e-13
0
0
0
0
0
-1.77636e-15
3.55271e-15
0
-5.32907e-15
1.77636e-15
0
0
-1.29674e-13
-1.38556e-13
1.29674e-13
1.66978e-13
-1.65201e-13
1.77636e-15
1.35003e-13
-2.6823e-13
-3.25073e-13
1.65201e-13
1.33227e-13
1.54543e-13
1.35003e-13
0
0
0
0
0
-1.77636e-15
3.55271e-15
0
-5.32907e-15
1.77636e-15
0
0
-1.35003e-13
-3.25073e-13
1.66978e-13
3.09086e-13
0
0
0
-2.6823e-13
-1.75859e-13
-9.41469e-14
-4.01457e-13
3.87246e-13
5.18696e-13
4.26326e-14
0
0
-1.77636e-15
-1.19016e-13
-3.2685e-13
1.54543e-13
2.96652e-13
-5.32907e-15
1.77636e-15
0
0
-1.35003e-13
-3.25073e-13
1.66978e-13
3.09086e-13
0
0
0
-2.6823e-13
-1.75859e-13
-9.41469e-14
-4.01457e-13
3.87246e-13
5.18696e-13
4.26326e-14
0
0
-1.77636e-15
-1.19016e-13
-1.72307e-13
1.65201e-13
1.35003e-13
0
0
0
-1.29674e-13
-2.77112e-13
-1.24345e-14
3.2685e-13
1.35003e-13
0
-2.70006e-13
-1.72307e-13
3.17968e-13
2.71783e-13
1.5099e-13
-1.58096e-13
-1.26121e-13
0
-2.70006e-13
-3.17968e-13
1.63425e-13
2.6823e-13
5.32907e-15
-1.72307e-13
1.65201e-13
1.35003e-13
0
0
0
-1.29674e-13
-2.77112e-13
-1.24345e-14
3.2685e-13
1.35003e-13
0
-2.70006e-13
-1.72307e-13
3.17968e-13
2.71783e-13
1.5099e-13
-1.58096e-13
-1.26121e-13
0
-2.70006e-13
-3.17968e-13
1.63425e-13
2.6823e-13
5.32907e-15
-1.72307e-13
1.65201e-13
1.35003e-13
0
0
0
-1.29674e-13
-2.77112e-13
-1.24345e-14
3.2685e-13
1.35003e-13
0
-2.70006e-13
-1.72307e-13
3.17968e-13
2.71783e-13
1.5099e-13
-1.58096e-13
-1.26121e-13
0
-2.70006e-13
-3.17968e-13
1.63425e-13
2.6823e-13
5.32907e-15
-1.72307e-13
1.65201e-13
1.35003e-13
0
0
0
-1.29674e-13
-2.77112e-13
-1.24345e-14
3.2685e-13
1.35003e-13
0
0
8.34888e-14
1.06581e-13
-6.73239e-13
-1.02673e-12
-1.00009e-12
-8.72191e-13
5.66658e-13
1.55076e-12
8.49099e-13
3.62377e-13
1.66978e-13
-6.39488e-14
1.88294e-13
2.54019e-13
-2.38032e-13
-1.91847e-13
8.34888e-14
1.06581e-13
-1.15463e-13
-7.63833e-14
-3.55271e-15
1.77636e-15
0
0
0
0
1.77636e-15
-3.55271e-15
3.55271e-15
-5.32907e-15
1.77636e-15
0
0
0
1.29674e-13
1.77636e-15
-1.59872e-13
2.02505e-13
2.39808e-13
-2.38032e-13
-1.91847e-13
8.34888e-14
1.06581e-13
-1.15463e-13
-7.63833e-14
-3.55271e-15
1.77636e-15
0
0
0
0
1.77636e-15
-3.55271e-15
3.55271e-15
-5.32907e-15
1.77636e-15
0
0
0
1.29674e-13
1.77636e-15
-1.59872e-13
2.02505e-13
2.39808e-13
-2.38032e-13
-1.91847e-13
8.34888e-14
1.06581e-13
-1.15463e-13
-7.63833e-14
-3.55271e-15
1.77636e-15
0
0
0
0
1.77636e-15
-3.55271e-15
3.55271e-15
-5.32907e-15
1.77636e-15
0
0
0
1.29674e-13
1.77636e-15
-1.59872e-13
2.02505e-13
2.39808e-13
-2.38032e-13
-1.91847e-13
8.34888e-14
1.06581e-13
-1.15463e-13
-7.63833e-14
-3.55271e-15
-1.27898e-13
-1.77636e-15
1.38556e-13
)
;

boundaryField
{
    sides
    {
        type            calculated;
        value           nonuniform List<scalar> 2(2.42293e-17 6.2292e-13);
    }
    empty
    {
        type            empty;
        value           nonuniform 0();
    }
}


// ************************************************************************* //
