/*--------------------------------*- C++ -*----------------------------------*\
| =========                 |                                                 |
| \\      /  F ield         | OpenFOAM: The Open Source CFD Toolbox           |
|  \\    /   O peration     | Version:  4.1                                   |
|   \\  /    A nd           | Web:      www.OpenFOAM.org                      |
|    \\/     M anipulation  |                                                 |
\*---------------------------------------------------------------------------*/
FoamFile
{
    version     2.0;
    format      ascii;
    class       volVectorField;
    location    "0.0002";
    object      U;
}
// * * * * * * * * * * * * * * * * * * * * * * * * * * * * * * * * * * * * * //

dimensions      [0 1 -1 0 0 0 0];

internalField   nonuniform List<vector> 
1000
(
(-1.79213e-13 0 0)
(-1.07504e-12 0 0)
(-4.52215e-14 0 0)
(1.42506e-12 0 0)
(1.26435e-12 0 0)
(6.88241e-13 0 0)
(-3.33223e-13 0 0)
(-3.34915e-13 0 0)
(-1.41196e-17 0 0)
(-3.31556e-13 0 0)
(-2.42816e-13 0 0)
(9.77903e-13 0 0)
(-1.15043e-12 0 0)
(-2.44989e-12 0 0)
(-5.72758e-13 0 0)
(3.61656e-13 0 0)
(-5.97829e-13 0 0)
(-3.81738e-13 0 0)
(8.69072e-13 0 0)
(-1.79163e-13 0 0)
(1.56408e-12 0 0)
(1.6143e-12 0 0)
(-1.95423e-12 0 0)
(-1.3481e-12 0 0)
(-8.8755e-14 0 0)
(-9.17682e-13 0 0)
(8.37678e-14 0 0)
(3.36586e-13 0 0)
(1.51719e-12 0 0)
(2.93894e-12 0 0)
(6.19603e-13 0 0)
(-3.33223e-13 0 0)
(-3.34915e-13 0 0)
(-1.41196e-17 0 0)
(-3.31556e-13 0 0)
(-2.42816e-13 0 0)
(9.77903e-13 0 0)
(-1.15043e-12 0 0)
(-2.44989e-12 0 0)
(-5.72758e-13 0 0)
(3.61656e-13 0 0)
(-5.97829e-13 0 0)
(-3.81738e-13 0 0)
(8.69072e-13 0 0)
(-1.79163e-13 0 0)
(1.56408e-12 0 0)
(1.6143e-12 0 0)
(-1.95423e-12 0 0)
(-1.3481e-12 0 0)
(-8.8755e-14 0 0)
(-9.17682e-13 0 0)
(8.37678e-14 0 0)
(3.36586e-13 0 0)
(1.51719e-12 0 0)
(2.93894e-12 0 0)
(6.19603e-13 0 0)
(-3.33223e-13 0 0)
(-3.34915e-13 0 0)
(-1.41196e-17 0 0)
(-3.31556e-13 0 0)
(-2.42816e-13 0 0)
(9.77903e-13 0 0)
(-1.15043e-12 0 0)
(-2.44989e-12 0 0)
(-5.72758e-13 0 0)
(3.61656e-13 0 0)
(-5.97829e-13 0 0)
(-3.81738e-13 0 0)
(8.69072e-13 0 0)
(-1.79163e-13 0 0)
(1.56408e-12 0 0)
(1.6143e-12 0 0)
(-1.95423e-12 0 0)
(-1.3481e-12 0 0)
(-8.8755e-14 0 0)
(-9.17682e-13 0 0)
(8.37678e-14 0 0)
(3.36586e-13 0 0)
(1.51719e-12 0 0)
(2.93894e-12 0 0)
(6.19603e-13 0 0)
(-3.33223e-13 0 0)
(-3.34915e-13 0 0)
(-1.44019e-17 0 0)
(-3.61704e-13 0 0)
(-4.8732e-13 0 0)
(-6.21357e-13 0 0)
(-3.08794e-12 0 0)
(-2.4985e-12 0 0)
(-2.15357e-12 0 0)
(-3.51672e-13 0 0)
(1.96765e-12 0 0)
(1.30622e-13 0 0)
(-7.93757e-13 0 0)
(-2.57836e-13 0 0)
(2.06811e-12 0 0)
(3.65394e-12 0 0)
(2.18209e-12 0 0)
(8.89234e-13 0 0)
(5.6941e-14 0 0)
(1.67473e-15 0 0)
(4.4233e-19 0 0)
(-9.04196e-14 0 0)
(-1.90963e-13 0 0)
(-1.73157e-12 0 0)
(-3.75607e-12 0 0)
(-1.32798e-12 0 0)
(-5.76047e-13 0 0)
(8.59069e-13 0 0)
(3.43121e-12 0 0)
(2.35787e-12 0 0)
(1.25767e-12 0 0)
(4.0024e-13 0 0)
(3.01316e-14 0 0)
(-6.64796e-13 0 0)
(-2.68804e-17 0 0)
(-6.49726e-13 0 0)
(-6.70338e-15 0 0)
(2.51199e-13 0 0)
(8.15509e-13 0 0)
(2.44482e-13 0 0)
(-7.71958e-13 0 0)
(-2.17691e-13 0 0)
(6.68136e-13 0 0)
(6.4959e-18 0 0)
(-3.31559e-13 0 0)
(-6.46402e-18 0 0)
(-9.04201e-14 0 0)
(-1.90963e-13 0 0)
(-1.73157e-12 0 0)
(-3.75607e-12 0 0)
(-1.32798e-12 0 0)
(-5.76047e-13 0 0)
(8.59069e-13 0 0)
(3.43121e-12 0 0)
(2.35787e-12 0 0)
(1.25767e-12 0 0)
(4.0024e-13 0 0)
(3.01316e-14 0 0)
(-6.64796e-13 0 0)
(-2.68804e-17 0 0)
(-6.49726e-13 0 0)
(-6.70338e-15 0 0)
(2.51199e-13 0 0)
(8.15509e-13 0 0)
(2.44482e-13 0 0)
(-7.71958e-13 0 0)
(-2.17691e-13 0 0)
(6.68136e-13 0 0)
(6.4959e-18 0 0)
(-3.31559e-13 0 0)
(-6.46402e-18 0 0)
(-9.04201e-14 0 0)
(-1.90963e-13 0 0)
(-1.73157e-12 0 0)
(-3.75607e-12 0 0)
(-1.32798e-12 0 0)
(-5.76047e-13 0 0)
(8.59069e-13 0 0)
(3.43121e-12 0 0)
(2.35787e-12 0 0)
(1.25767e-12 0 0)
(4.0024e-13 0 0)
(3.01316e-14 0 0)
(-6.64796e-13 0 0)
(-2.68804e-17 0 0)
(-6.49726e-13 0 0)
(-6.70338e-15 0 0)
(2.51199e-13 0 0)
(8.15509e-13 0 0)
(2.44482e-13 0 0)
(-7.71958e-13 0 0)
(-2.17691e-13 0 0)
(6.68136e-13 0 0)
(6.4959e-18 0 0)
(-3.31559e-13 0 0)
(-5.60542e-18 0 0)
(-1.66151e-15 0 0)
(3.11415e-13 0 0)
(-1.23086e-12 0 0)
(-4.03238e-12 0 0)
(-1.84041e-12 0 0)
(-2.2272e-13 0 0)
(-1.00468e-14 0 0)
(3.11807e-12 0 0)
(3.5552e-12 0 0)
(9.29457e-13 0 0)
(3.51651e-14 0 0)
(-3.34921e-13 0 0)
(-6.12882e-13 0 0)
(3.34895e-13 0 0)
(5.19147e-18 0 0)
(-9.12022e-18 0 0)
(-4.42107e-13 0 0)
(-1.23248e-12 0 0)
(1.05503e-13 0 0)
(1.38988e-12 0 0)
(1.65813e-13 0 0)
(1.34009e-14 0 0)
(-4.50435e-19 0 0)
(-6.46699e-18 0 0)
(-3.34902e-13 0 0)
(1.57415e-13 0 0)
(9.99709e-13 0 0)
(8.87549e-14 0 0)
(-9.10949e-13 0 0)
(-2.65967e-17 0 0)
(-3.34904e-13 0 0)
(3.34904e-13 0 0)
(1.6946e-15 0 0)
(6.64796e-13 0 0)
(-1.66142e-15 0 0)
(-5.19201e-14 0 0)
(-3.34923e-13 0 0)
(-6.12882e-13 0 0)
(3.34895e-13 0 0)
(5.19147e-18 0 0)
(-9.12022e-18 0 0)
(-4.42107e-13 0 0)
(-1.23248e-12 0 0)
(1.05503e-13 0 0)
(1.38988e-12 0 0)
(1.65813e-13 0 0)
(1.34009e-14 0 0)
(-4.50782e-19 0 0)
(-6.4708e-18 0 0)
(-3.34902e-13 0 0)
(1.57415e-13 0 0)
(8.90859e-13 0 0)
(-7.28458e-21 0 0)
(-8.90859e-13 0 0)
(-1.57415e-13 0 0)
(3.34902e-13 0 0)
(7.62418e-18 0 0)
(1.43809e-17 0 0)
(6.66469e-13 0 0)
(-1.6744e-15 0 0)
(-6.64794e-13 0 0)
(-1.3742e-17 0 0)
(-1.14487e-18 0 0)
(-3.17062e-23 0 0)
(-1.99631e-24 0 0)
(-1.5538e-23 0 0)
(-5.8108e-19 0 0)
(-6.39374e-18 0 0)
(-3.34903e-13 0 0)
(3.34893e-13 0 0)
(-2.96447e-13 0 0)
(-1.95415e-12 0 0)
(6.07888e-13 0 0)
(3.06607e-12 0 0)
(-1.13812e-13 0 0)
(-9.76262e-13 0 0)
(3.33207e-13 0 0)
(-6.66464e-13 0 0)
(-1.32303e-17 0 0)
(-1.14491e-18 0 0)
(6.29091e-20 0 0)
(1.67497e-15 0 0)
(-1.667e-15 0 0)
(3.31566e-13 0 0)
(3.33228e-13 0 0)
(-6.64788e-13 0 0)
(-1.31609e-17 0 0)
(-1.14486e-18 0 0)
(-3.10308e-23 0 0)
(-1.9963e-24 0 0)
(-1.59321e-23 0 0)
(-5.81089e-19 0 0)
(-7.12753e-18 0 0)
(-3.34911e-13 0 0)
(-5.86127e-13 0 0)
(-1.85927e-13 0 0)
(-1.17213e-12 0 0)
(3.09825e-13 0 0)
(3.14645e-12 0 0)
(-1.08787e-13 0 0)
(-7.35118e-13 0 0)
(3.33207e-13 0 0)
(-6.66464e-13 0 0)
(-1.32303e-17 0 0)
(-1.14491e-18 0 0)
(6.29091e-20 0 0)
(1.67497e-15 0 0)
(-1.667e-15 0 0)
(3.31566e-13 0 0)
(3.33228e-13 0 0)
(-6.64788e-13 0 0)
(-1.31609e-17 0 0)
(-1.14486e-18 0 0)
(-3.10308e-23 0 0)
(-1.32089e-24 0 0)
(-6.75484e-25 0 0)
(-1.62079e-23 0 0)
(-5.81095e-19 0 0)
(-6.97198e-18 0 0)
(-3.34909e-13 0 0)
(1.14486e-18 0 0)
(3.34922e-13 0 0)
(6.64795e-13 0 0)
(-3.31553e-13 0 0)
(-3.3324e-13 0 0)
(-5.69543e-19 0 0)
(3.33234e-13 0 0)
(-6.55418e-25 0 0)
(-3.33234e-13 0 0)
(1.62031e-23 0 0)
(3.33234e-13 0 0)
(6.97127e-18 0 0)
(1.67447e-15 0 0)
(-6.32728e-18 0 0)
(-3.34902e-13 0 0)
(3.33234e-13 0 0)
(3.31553e-13 0 0)
(-6.64788e-13 0 0)
(-1.31666e-17 0 0)
(-1.14486e-18 0 0)
(-1.50735e-23 0 0)
(5.75311e-19 0 0)
(6.90261e-18 0 0)
(3.33234e-13 0 0)
(1.59672e-23 0 0)
(-3.33234e-13 0 0)
(2.12061e-29 0 0)
(3.33234e-13 0 0)
(1.41997e-29 0 0)
(-3.33234e-13 0 0)
(-1.27447e-31 0 0)
(3.33234e-13 0 0)
(3.82623e-29 0 0)
(-3.33234e-13 0 0)
(1.62031e-23 0 0)
(3.33234e-13 0 0)
(6.97127e-18 0 0)
(1.67447e-15 0 0)
(-6.32728e-18 0 0)
(-3.34902e-13 0 0)
(3.33234e-13 0 0)
(3.31553e-13 0 0)
(-6.64788e-13 0 0)
(-1.31666e-17 0 0)
(-1.14486e-18 0 0)
(-1.50735e-23 0 0)
(5.75311e-19 0 0)
(6.90261e-18 0 0)
(3.33234e-13 0 0)
(3.10407e-23 0 0)
(-3.33233e-13 0 0)
(6.26404e-18 0 0)
(6.64787e-13 0 0)
(-3.31554e-13 0 0)
(-3.33239e-13 0 0)
(5.69449e-18 0 0)
(6.64787e-13 0 0)
(-3.31554e-13 0 0)
(-3.33239e-13 0 0)
(5.69449e-18 0 0)
(6.64787e-13 0 0)
(-3.31554e-13 0 0)
(-3.33241e-13 0 0)
(-6.89682e-18 0 0)
(6.89682e-18 0 0)
(3.33241e-13 0 0)
(3.31554e-13 0 0)
(-6.64787e-13 0 0)
(6.35887e-20 0 0)
(6.66461e-13 0 0)
(-3.33228e-13 0 0)
(-3.3324e-13 0 0)
(-5.75326e-19 0 0)
(3.33234e-13 0 0)
(-1.66327e-23 0 0)
(-3.33234e-13 0 0)
(-6.90261e-18 0 0)
(-5.75312e-19 0 0)
(-2.08188e-35 0 0)
(5.75312e-19 0 0)
(6.90261e-18 0 0)
(3.33234e-13 0 0)
(1.41822e-29 0 0)
(-3.33234e-13 0 0)
(-6.90261e-18 0 0)
(-5.75312e-19 0 0)
(-1.53018e-23 0 0)
(1.59673e-23 0 0)
(5.75328e-19 0 0)
(7.47793e-18 0 0)
(3.33241e-13 0 0)
(3.33228e-13 0 0)
(-6.66461e-13 0 0)
(2.02843e-29 0 0)
(6.66461e-13 0 0)
(-3.33228e-13 0 0)
(-3.3324e-13 0 0)
(-5.75326e-19 0 0)
(3.33234e-13 0 0)
(-1.66327e-23 0 0)
(-3.33234e-13 0 0)
(-6.90261e-18 0 0)
(-5.75312e-19 0 0)
(-1.59672e-23 0 0)
(-6.6541e-25 0 0)
(-2.08758e-29 0 0)
(-5.7993e-31 0 0)
(-1.94982e-35 0 0)
(-4.0618e-37 0 0)
(-1.42913e-41 0 0)
(-2.3812e-43 0 0)
(-2.45298e-43 0 0)
(-1.44772e-41 0 0)
(-4.16378e-37 0 0)
(-1.95719e-35 0 0)
(-5.91572e-31 0 0)
(-2.07039e-29 0 0)
(-6.75423e-25 0 0)
(-1.55325e-23 0 0)
(-5.81079e-19 0 0)
(-6.3909e-18 0 0)
(-3.34902e-13 0 0)
(3.34902e-13 0 0)
(6.3909e-18 0 0)
(5.81079e-19 0 0)
(1.55325e-23 0 0)
(6.75423e-25 0 0)
(2.07039e-29 0 0)
(5.91572e-31 0 0)
(1.95719e-35 0 0)
(4.16378e-37 0 0)
(1.44772e-41 0 0)
(2.45289e-43 0 0)
(8.83689e-48 0 0)
(-1.15409e-62 0 0)
(-8.83689e-48 0 0)
(-2.45289e-43 0 0)
(-1.44772e-41 0 0)
(-4.16378e-37 0 0)
(-1.95719e-35 0 0)
(-5.91572e-31 0 0)
(-2.07039e-29 0 0)
(-6.75423e-25 0 0)
(-1.55325e-23 0 0)
(-5.81079e-19 0 0)
(-6.3909e-18 0 0)
(-3.34902e-13 0 0)
(3.34902e-13 0 0)
(6.3909e-18 0 0)
(5.81079e-19 0 0)
(1.55326e-23 0 0)
(3.18455e-24 0 0)
(6.02061e-23 0 0)
(1.99522e-18 0 0)
(2.39384e-17 0 0)
(8.62377e-13 0 0)
(1.15316e-28 0 0)
(-8.62377e-13 0 0)
(-2.39383e-17 0 0)
(2.2628e-19 0 0)
(2.61023e-17 0 0)
(1.11523e-12 0 0)
(-2.66237e-13 0 0)
(-5.14085e-13 0 0)
(-1.41984e-17 0 0)
(-5.84786e-18 0 0)
(-3.34883e-13 0 0)
(1.21906e-12 0 0)
(-5.81095e-19 0 0)
(-1.21907e-12 0 0)
(-2.65535e-17 0 0)
(-2.20756e-18 0 0)
(1.77172e-19 0 0)
(8.70826e-14 0 0)
(1.04833e-12 0 0)
(8.9711e-12 0 0)
(6.84328e-11 0 0)
(4.85616e-10 0 0)
(3.36512e-09 0 0)
(2.19652e-08 0 0)
(1.3981e-07 0 0)
(8.35866e-07 0 0)
(4.84683e-06 0 0)
(2.62889e-05 0 0)
(0.000137307 0 0)
(0.00066741 0 0)
(0.00309416 0 0)
(0.0132613 0 0)
(0.0534988 0 0)
(0.197572 0 0)
(0.673215 0 0)
(2.06052 0 0)
(5.58452 0 0)
(12.874 0 0)
(25.3837 0 0)
(43.6033 0 0)
(66.716 0 0)
(92.9245 0 0)
(118.895 0 0)
(143.812 0 0)
(165.138 0 0)
(180.964 0 0)
(191.362 0 0)
(197.061 0 0)
(200.875 0 0)
(204.265 0 0)
(204.355 0 0)
(200.879 0 0)
(196.632 0 0)
(193.139 0 0)
(190.367 0 0)
(187.119 0 0)
(179.165 0 0)
(146.267 0 0)
(73.5556 0 0)
(18.8852 0 0)
(4.13545 0 0)
(0.831687 0 0)
(0.160838 0 0)
(0.0303097 0 0)
(0.00555559 0 0)
(0.000994176 0 0)
(0.0001724 0 0)
(2.91163e-05 0 0)
(4.74298e-06 0 0)
(7.51053e-07 0 0)
(1.14365e-07 0 0)
(1.69227e-08 0 0)
(2.40543e-09 0 0)
(3.32463e-10 0 0)
(4.42732e-11 0 0)
(5.58189e-12 0 0)
(4.35452e-13 0 0)
(2.34484e-14 0 0)
(8.25119e-18 0 0)
(1.06409e-16 0 0)
(5.77636e-13 0 0)
(1.35283e-12 0 0)
(-7.68281e-13 0 0)
(-1.6755e-13 0 0)
(2.84673e-13 0 0)
(1.32425e-13 0 0)
(1.58044e-12 0 0)
(-9.10814e-13 0 0)
(-1.7062e-12 0 0)
(-2.34598e-13 0 0)
(-1.40671e-13 0 0)
(1.13327e-16 0 0)
(1.11001e-12 0 0)
(-5.35762e-14 0 0)
(-1.05644e-12 0 0)
(-1.11086e-16 0 0)
(-9.23778e-18 0 0)
(-1.15115e-21 0 0)
(-4.79727e-23 0 0)
(-5.0278e-27 0 0)
(1.06563e-23 0 0)
(2.55473e-22 0 0)
(2.30199e-18 0 0)
(2.76057e-17 0 0)
(3.3319e-13 0 0)
(2.7606e-17 0 0)
(4.62698e-18 0 0)
(2.78586e-17 0 0)
(3.34861e-13 0 0)
(-1.67374e-15 0 0)
(-3.33188e-13 0 0)
(-2.53258e-17 0 0)
(2.06986e-17 0 0)
(3.33135e-13 0 0)
(-6.66348e-13 0 0)
(-2.55473e-22 0 0)
(6.66346e-13 0 0)
(-3.33162e-13 0 0)
(-3.33211e-13 0 0)
(-2.30161e-18 0 0)
(3.33185e-13 0 0)
(-1.06535e-23 0 0)
(-3.33185e-13 0 0)
(-1.33678e-27 0 0)
(3.33185e-13 0 0)
(-2.44815e-22 0 0)
(-3.33188e-13 0 0)
(-2.53035e-17 0 0)
(2.53037e-17 0 0)
(3.3319e-13 0 0)
(2.99304e-17 0 0)
(2.78589e-17 0 0)
(3.34838e-13 0 0)
(-3.34811e-13 0 0)
(3.33137e-13 0 0)
(-3.33162e-13 0 0)
(-5.03941e-22 0 0)
(3.33158e-13 0 0)
(-3.3319e-13 0 0)
(-3.33211e-13 0 0)
(2.30006e-17 0 0)
(6.66348e-13 0 0)
(-3.33162e-13 0 0)
(-3.33208e-13 0 0)
(2.53024e-17 0 0)
(6.66373e-13 0 0)
(-2.66125e-22 0 0)
(-6.66375e-13 0 0)
(-5.52095e-17 0 0)
(-4.60383e-18 0 0)
(-5.10905e-22 0 0)
(-2.13112e-23 0 0)
(-2.67349e-27 0 0)
(-1.19308e-28 0 0)
(-8.46121e-25 0 0)
(-1.94688e-23 0 0)
(-4.2272e-19 0 0)
(-4.64921e-18 0 0)
(-1.42335e-13 0 0)
(1.42229e-13 0 0)
(-1.06146e-12 0 0)
(3.34837e-13 0 0)
(7.26649e-13 0 0)
(7.45039e-17 0 0)
(3.74055e-18 0 0)
(-3.59443e-17 0 0)
(-3.31615e-13 0 0)
(-1.20547e-12 0 0)
(6.63015e-13 0 0)
(1.02639e-12 0 0)
(-8.29054e-15 0 0)
(-1.43983e-13 0 0)
(-1.30827e-17 0 0)
(-1.08576e-18 0 0)
(-9.96057e-23 0 0)
(-4.14398e-24 0 0)
(-4.1859e-28 0 0)
(-1.24564e-27 0 0)
(-1.00295e-23 0 0)
(-2.40921e-22 0 0)
(-2.21058e-18 0 0)
(-2.65784e-17 0 0)
(-3.26492e-13 0 0)
(-5.02126e-15 0 0)
(3.31507e-13 0 0)
(-5.11795e-17 0 0)
(-8.57254e-13 0 0)
(-2.14276e-13 0 0)
(1.07151e-12 0 0)
(9.60224e-17 0 0)
(-2.76745e-17 0 0)
(-3.31616e-13 0 0)
(-1.19542e-12 0 0)
(6.64676e-13 0 0)
(8.6231e-13 0 0)
(8.13532e-17 0 0)
(6.40246e-18 0 0)
(7.43977e-22 0 0)
(6.80908e-25 0 0)
(-7.17313e-22 0 0)
(-6.037e-18 0 0)
(-7.47153e-17 0 0)
(-7.29998e-13 0 0)
(-3.34836e-13 0 0)
(1.06481e-12 0 0)
(9.79472e-17 0 0)
(8.3615e-18 0 0)
(9.24914e-22 0 0)
(-6.90483e-22 0 0)
(-6.36693e-18 0 0)
(-7.83293e-17 0 0)
(-8.55582e-13 0 0)
(-2.17626e-13 0 0)
(1.07319e-12 0 0)
(1.20938e-16 0 0)
(2.71175e-13 0 0)
(-6.29614e-13 0 0)
(-1.16697e-12 0 0)
(6.98164e-13 0 0)
(8.90778e-13 0 0)
(-6.35519e-14 0 0)
(5.38799e-18 0 0)
(-8.47129e-20 0 0)
(-1.21198e-24 0 0)
(-7.17392e-22 0 0)
(-6.037e-18 0 0)
(-7.47153e-17 0 0)
(-7.29998e-13 0 0)
(-3.34836e-13 0 0)
(1.06481e-12 0 0)
(9.79472e-17 0 0)
(8.3615e-18 0 0)
(9.24914e-22 0 0)
(-6.90483e-22 0 0)
(-6.36693e-18 0 0)
(-7.83293e-17 0 0)
(-8.55582e-13 0 0)
(-2.17626e-13 0 0)
(1.07319e-12 0 0)
(1.20938e-16 0 0)
(2.71175e-13 0 0)
(-6.29614e-13 0 0)
(-1.16697e-12 0 0)
(6.98164e-13 0 0)
(8.90778e-13 0 0)
(-6.35519e-14 0 0)
(5.38799e-18 0 0)
(-8.47237e-20 0 0)
(-2.31062e-22 0 0)
(-2.32512e-18 0 0)
(-2.78829e-17 0 0)
(-3.34862e-13 0 0)
(3.10586e-34 0 0)
(3.34862e-13 0 0)
(2.78829e-17 0 0)
(2.32512e-18 0 0)
(2.59323e-22 0 0)
(1.09746e-23 0 0)
(3.61711e-24 0 0)
(2.29051e-20 0 0)
(2.51614e-19 0 0)
(1.67375e-15 0 0)
(-1.67375e-15 0 0)
(-2.53359e-19 0 0)
(-2.18932e-20 0 0)
(-2.325e-18 0 0)
(-2.78829e-17 0 0)
(-3.34862e-13 0 0)
(-1.387e-21 0 0)
(3.34862e-13 0 0)
(2.78828e-17 0 0)
(2.32426e-18 0 0)
(-4.60267e-18 0 0)
(-5.52611e-17 0 0)
(-6.66378e-13 0 0)
(-3.37536e-15 0 0)
(3.34861e-13 0 0)
(1.72946e-15 0 0)
(3.33193e-13 0 0)
(2.76235e-17 0 0)
(2.30998e-18 0 0)
(9.49536e-22 0 0)
(1.08221e-23 0 0)
(3.61721e-24 0 0)
(2.29051e-20 0 0)
(2.51614e-19 0 0)
(1.67375e-15 0 0)
(-1.67375e-15 0 0)
(-2.53359e-19 0 0)
(-2.18932e-20 0 0)
(-2.325e-18 0 0)
(-2.78829e-17 0 0)
(-3.34862e-13 0 0)
(-1.63551e-21 0 0)
(3.34859e-13 0 0)
(2.32485e-18 0 0)
(-3.34834e-13 0 0)
(3.34832e-13 0 0)
(-2.97031e-17 0 0)
(-6.66376e-13 0 0)
(-3.37536e-15 0 0)
(3.34861e-13 0 0)
(1.72946e-15 0 0)
(3.33193e-13 0 0)
(2.76235e-17 0 0)
(2.30998e-18 0 0)
(9.49536e-22 0 0)
(1.08221e-23 0 0)
(3.61721e-24 0 0)
(2.29051e-20 0 0)
(2.51614e-19 0 0)
(1.67375e-15 0 0)
(-1.67375e-15 0 0)
(-2.53359e-19 0 0)
(-2.19185e-20 0 0)
(-2.41538e-18 0 0)
(-3.12652e-17 0 0)
(-3.41583e-13 0 0)
(-3.33162e-13 0 0)
(6.7472e-13 0 0)
(1.72802e-15 0 0)
(-1.66903e-15 0 0)
(-4.8552e-18 0 0)
(-5.30498e-17 0 0)
(-6.66358e-13 0 0)
(3.24712e-13 0 0)
(-5.87668e-13 0 0)
(-2.42752e-13 0 0)
(1.05817e-12 0 0)
(1.1561e-13 0 0)
(-1.65692e-15 0 0)
(7.6894e-19 0 0)
(-2.28926e-18 0 0)
(-2.96122e-17 0 0)
(-3.31539e-13 0 0)
(-3.31489e-13 0 0)
(6.63002e-13 0 0)
(5.23869e-17 0 0)
(4.55788e-18 0 0)
(1.59543e-21 0 0)
(-2.41535e-18 0 0)
(-3.12652e-17 0 0)
(-3.41583e-13 0 0)
(-3.33162e-13 0 0)
(6.7472e-13 0 0)
(1.72802e-15 0 0)
(-1.66903e-15 0 0)
(-4.8552e-18 0 0)
(-5.30498e-17 0 0)
(-6.66358e-13 0 0)
(3.24712e-13 0 0)
(-5.87668e-13 0 0)
(-2.42752e-13 0 0)
(1.05817e-12 0 0)
(1.1561e-13 0 0)
(-1.65692e-15 0 0)
(7.68951e-19 0 0)
(-2.28901e-18 0 0)
(-2.73332e-17 0 0)
(-3.31514e-13 0 0)
(-3.46524e-22 0 0)
(3.31514e-13 0 0)
(2.73337e-17 0 0)
(2.27905e-18 0 0)
(-2.21025e-18 0 0)
(-2.89669e-17 0 0)
(-3.26521e-13 0 0)
(-3.44905e-13 0 0)
(3.29839e-13 0 0)
(3.41585e-13 0 0)
(2.65928e-17 0 0)
(-5.08624e-17 0 0)
(-6.68025e-13 0 0)
(3.2647e-13 0 0)
(3.4161e-13 0 0)
(3.34892e-13 0 0)
(-1.84165e-14 0 0)
(-3.16443e-13 0 0)
(-3.19456e-17 0 0)
(-5.77867e-17 0 0)
(-6.68052e-13 0 0)
(-1.69931e-15 0 0)
(3.34885e-13 0 0)
(3.34865e-13 0 0)
(-3.31484e-13 0 0)
(2.32793e-18 0 0)
(3.31514e-13 0 0)
(2.73337e-17 0 0)
(2.27905e-18 0 0)
(-2.21025e-18 0 0)
(-2.89669e-17 0 0)
(-3.26521e-13 0 0)
(-3.44905e-13 0 0)
(3.29839e-13 0 0)
(3.41585e-13 0 0)
(2.65928e-17 0 0)
(-5.08624e-17 0 0)
(-6.68025e-13 0 0)
(3.2647e-13 0 0)
(3.4161e-13 0 0)
(3.34892e-13 0 0)
(-1.84165e-14 0 0)
(-3.16443e-13 0 0)
(-3.19456e-17 0 0)
(-5.77867e-17 0 0)
(-6.68052e-13 0 0)
(-1.69931e-15 0 0)
(3.34885e-13 0 0)
(3.34865e-13 0 0)
(-3.31484e-13 0 0)
(2.32793e-18 0 0)
(3.31514e-13 0 0)
(2.73337e-17 0 0)
(2.27905e-18 0 0)
(-2.21025e-18 0 0)
(-2.89669e-17 0 0)
(-3.26521e-13 0 0)
(-3.44905e-13 0 0)
(3.29839e-13 0 0)
(3.41585e-13 0 0)
(2.65928e-17 0 0)
(-5.08624e-17 0 0)
(-6.68025e-13 0 0)
(3.2647e-13 0 0)
(3.4161e-13 0 0)
(3.34892e-13 0 0)
(-1.84165e-14 0 0)
(-3.16443e-13 0 0)
(-3.19456e-17 0 0)
(-5.77867e-17 0 0)
(-6.68052e-13 0 0)
(-1.69931e-15 0 0)
(3.34885e-13 0 0)
(3.34865e-13 0 0)
(-3.31484e-13 0 0)
(2.32793e-18 0 0)
(3.31514e-13 0 0)
(2.73337e-17 0 0)
(2.27905e-18 0 0)
(-2.21025e-18 0 0)
(-2.89669e-17 0 0)
(-3.26521e-13 0 0)
(-3.44905e-13 0 0)
(3.29839e-13 0 0)
(3.41585e-13 0 0)
(3.12202e-17 0 0)
(5.13043e-18 0 0)
(3.24826e-17 0 0)
(2.20967e-13 0 0)
(-5.1319e-15 0 0)
(-1.60902e-12 0 0)
(-6.73425e-13 0 0)
(-1.48687e-12 0 0)
(-6.94809e-13 0 0)
(2.15648e-12 0 0)
(1.20754e-12 0 0)
(5.84482e-13 0 0)
(4.03519e-13 0 0)
(-1.15458e-13 0 0)
(2.35782e-17 0 0)
(4.9223e-13 0 0)
(5.02482e-15 0 0)
(-4.85532e-13 0 0)
(-1.45757e-17 0 0)
(2.20972e-13 0 0)
(-5.0213e-15 0 0)
(-2.15956e-13 0 0)
(-3.18072e-17 0 0)
(-2.64731e-18 0 0)
(-3.93379e-22 0 0)
(-1.26285e-23 0 0)
(2.29087e-20 0 0)
(2.74519e-19 0 0)
(1.674e-15 0 0)
(1.61775e-21 0 0)
(-1.67401e-15 0 0)
(-2.73364e-19 0 0)
(-2.2793e-20 0 0)
(7.07621e-24 0 0)
(2.48318e-22 0 0)
(2.32267e-18 0 0)
(2.55338e-17 0 0)
(3.34836e-13 0 0)
(-3.34833e-13 0 0)
(2.19575e-17 0 0)
(4.87206e-13 0 0)
(-1.67366e-15 0 0)
(-4.85532e-13 0 0)
(-1.45762e-17 0 0)
(2.20972e-13 0 0)
(-5.0213e-15 0 0)
(-2.15956e-13 0 0)
(-3.18072e-17 0 0)
(-2.64731e-18 0 0)
(-3.93379e-22 0 0)
(-1.26285e-23 0 0)
(2.29087e-20 0 0)
(2.74519e-19 0 0)
(1.674e-15 0 0)
(1.61775e-21 0 0)
(-1.67401e-15 0 0)
(-2.73364e-19 0 0)
(-2.2793e-20 0 0)
(7.07621e-24 0 0)
(2.48318e-22 0 0)
(2.32267e-18 0 0)
(2.55338e-17 0 0)
(3.34836e-13 0 0)
(-3.34833e-13 0 0)
(2.19575e-17 0 0)
(4.87206e-13 0 0)
(-1.67366e-15 0 0)
(-4.85532e-13 0 0)
(-1.45762e-17 0 0)
(2.20972e-13 0 0)
(-5.0213e-15 0 0)
(-2.15956e-13 0 0)
(-3.18072e-17 0 0)
(-2.64731e-18 0 0)
(-3.93379e-22 0 0)
(-1.26285e-23 0 0)
(2.29087e-20 0 0)
(2.74519e-19 0 0)
(1.674e-15 0 0)
(1.61775e-21 0 0)
(-1.67401e-15 0 0)
(-2.73364e-19 0 0)
(-2.2793e-20 0 0)
(7.07621e-24 0 0)
(2.48318e-22 0 0)
(2.32267e-18 0 0)
(2.55338e-17 0 0)
(3.34836e-13 0 0)
(-3.34833e-13 0 0)
(2.19575e-17 0 0)
(4.87206e-13 0 0)
(-1.67366e-15 0 0)
(-4.85532e-13 0 0)
(-1.45762e-17 0 0)
(2.20972e-13 0 0)
(-5.0213e-15 0 0)
(-2.15956e-13 0 0)
(-3.41321e-17 0 0)
(-2.82053e-17 0 0)
(-3.34836e-13 0 0)
(3.34836e-13 0 0)
(2.78829e-17 0 0)
)
;

boundaryField
{
    sides
    {
        type            zeroGradient;
    }
    empty
    {
        type            empty;
    }
}


// ************************************************************************* //
