/*--------------------------------*- C++ -*----------------------------------*\
| =========                 |                                                 |
| \\      /  F ield         | OpenFOAM: The Open Source CFD Toolbox           |
|  \\    /   O peration     | Version:  4.1                                   |
|   \\  /    A nd           | Web:      www.OpenFOAM.org                      |
|    \\/     M anipulation  |                                                 |
\*---------------------------------------------------------------------------*/
FoamFile
{
    version     2.0;
    format      ascii;
    class       volScalarField;
    location    "0.0064";
    object      mag(U);
}
// * * * * * * * * * * * * * * * * * * * * * * * * * * * * * * * * * * * * * //

dimensions      [0 1 -1 0 0 0 0];

internalField   nonuniform List<scalar> 
1000
(
1.65992e-11
1.69949e-11
1.7423e-11
1.85971e-11
1.97868e-11
2.11067e-11
2.42901e-11
2.52294e-11
2.65054e-11
2.77075e-11
2.67362e-11
2.85516e-11
2.61119e-11
2.67302e-11
2.43386e-11
2.64267e-11
2.30191e-11
2.62533e-11
2.37133e-11
2.81311e-11
2.207e-11
2.41295e-11
2.2474e-11
2.53255e-11
2.25527e-11
2.49184e-11
2.29894e-11
2.38902e-11
2.36278e-11
2.29685e-11
2.45282e-11
2.41769e-11
2.31471e-11
2.08238e-11
2.14281e-11
1.70654e-11
1.8684e-11
1.40507e-11
1.59936e-11
1.15937e-11
1.39733e-11
1.06522e-11
1.12764e-11
7.38131e-12
9.8626e-12
5.61279e-12
9.49688e-12
6.31964e-12
7.20361e-12
3.48009e-12
6.07623e-12
1.86367e-12
3.67495e-12
1.45392e-12
9.45329e-13
3.70258e-12
3.64145e-12
7.43823e-13
2.50478e-13
1.09631e-12
1.1457e-13
2.04277e-12
1.39964e-12
1.9149e-12
5.48382e-12
1.58006e-12
3.36027e-12
4.99703e-13
2.49955e-12
2.12816e-12
2.91334e-12
3.16528e-12
4.98284e-13
2.47127e-12
3.35682e-12
1.99905e-13
3.39436e-12
1.56587e-12
8.4175e-13
2.44558e-13
2.27588e-12
2.15018e-12
2.11313e-12
8.27278e-13
2.79552e-12
1.28898e-12
1.38763e-12
4.37306e-12
1.87802e-12
4.61844e-12
2.49501e-12
7.73946e-12
3.68072e-12
9.81509e-12
6.31896e-12
9.43798e-12
7.71173e-12
9.33148e-12
7.82914e-12
1.17919e-11
1.22861e-11
1.43768e-11
1.36921e-11
9.76637e-12
1.13017e-11
1.09305e-11
8.08614e-12
9.73971e-12
1.07098e-11
1.23888e-11
1.16514e-11
1.26884e-11
1.37825e-11
1.09691e-11
1.30681e-11
9.80359e-12
8.99992e-12
9.20802e-12
1.14343e-11
1.01846e-11
1.1545e-11
7.92967e-12
8.05722e-12
9.72847e-12
8.08944e-12
6.60432e-12
5.99735e-12
7.71533e-12
6.43359e-12
1.02366e-11
9.45813e-12
1.15594e-11
1.2728e-11
1.33666e-11
1.49297e-11
1.48209e-11
1.5539e-11
1.54689e-11
1.55756e-11
1.68983e-11
1.68977e-11
1.51117e-11
1.32746e-11
1.55869e-11
1.53078e-11
1.48148e-11
1.46547e-11
1.50232e-11
1.63755e-11
1.36697e-11
1.63963e-11
1.69402e-11
2.06174e-11
1.98428e-11
2.36242e-11
2.38317e-11
2.33755e-11
2.52746e-11
2.35714e-11
2.46877e-11
2.42438e-11
2.33248e-11
2.19965e-11
2.18032e-11
2.24687e-11
2.26154e-11
2.13974e-11
2.03949e-11
2.16022e-11
2.1812e-11
2.22967e-11
2.26184e-11
2.25943e-11
2.24985e-11
2.12702e-11
2.02008e-11
1.97246e-11
2.23314e-11
1.83095e-11
2.11313e-11
1.88553e-11
2.28532e-11
2.39948e-11
2.5313e-11
2.75237e-11
3.34615e-11
4.36766e-11
6.92591e-11
1.18028e-10
2.14791e-10
4.09053e-10
7.81897e-10
1.51054e-09
2.90197e-09
5.56258e-09
1.05874e-08
2.00386e-08
3.76678e-08
7.0348e-08
1.30478e-07
2.4035e-07
4.3964e-07
7.98488e-07
1.43982e-06
2.57736e-06
4.5795e-06
8.07584e-06
1.41329e-05
2.45413e-05
4.22789e-05
7.22525e-05
0.000122468
0.000205855
0.000343086
0.000566856
0.000928306
0.00150652
0.00242234
0.00385815
0.0060856
0.00950391
0.0146913
0.0224727
0.0340058
0.0508879
0.0752815
0.110056
0.158934
0.226632
0.31896
0.442857
0.606317
0.818151
1.08754
1.42329
1.83278
2.32021
2.88464
3.52008
4.2187
4.97367
5.77938
6.63094
7.52374
8.45341
9.41586
10.4073
11.4244
12.4639
13.5234
14.6003
15.6927
16.7989
17.9172
19.0463
20.1853
21.3329
22.4885
23.6512
24.8205
25.9957
27.1763
28.3619
29.5521
30.7465
31.9449
33.147
34.3524
35.5611
36.7727
37.9871
39.204
40.4235
41.6452
42.8691
44.0951
45.323
46.5527
47.7842
49.0173
50.2519
51.488
52.7256
53.9644
55.2045
56.4458
57.6882
58.9317
60.1762
61.4216
62.668
63.9152
65.1633
66.4121
67.6616
68.9119
70.1627
71.4142
72.6662
73.9188
75.1719
76.4254
77.6793
78.9336
80.1883
81.4433
82.6985
83.954
85.2097
86.4657
87.7217
88.9779
90.2342
91.4905
92.7469
94.0033
95.2596
96.5158
97.772
99.028
100.284
101.54
102.795
104.05
105.305
106.56
107.814
109.068
110.321
111.574
112.826
114.078
115.329
116.58
117.83
119.079
120.328
121.575
122.822
124.068
125.313
126.557
127.799
129.041
130.282
131.521
132.759
133.995
135.23
136.463
137.695
138.925
140.153
141.38
142.604
143.826
145.046
146.263
147.478
148.691
149.9
151.107
152.311
153.511
154.708
155.901
157.091
158.276
159.457
160.634
161.805
162.972
164.133
165.288
166.438
167.58
168.716
169.844
170.965
172.077
173.18
174.274
175.358
176.43
177.491
178.54
179.576
180.596
181.603
182.592
183.565
184.519
185.453
186.366
187.256
188.123
188.963
189.777
190.562
191.316
192.038
192.726
193.378
193.994
194.571
195.109
195.607
196.063
196.477
196.85
197.182
197.474
197.727
197.943
198.124
198.273
198.393
198.487
198.558
198.61
198.646
198.668
198.681
198.686
198.688
198.687
198.687
198.685
198.682
198.674
198.663
198.65
198.638
198.627
198.617
198.61
198.604
198.6
198.597
198.595
198.593
198.592
198.591
198.59
198.59
198.589
198.588
198.588
198.587
198.587
198.586
198.585
198.585
198.584
198.583
198.583
198.582
198.582
198.581
198.581
198.58
198.579
198.579
198.578
198.578
198.577
198.577
198.576
198.576
198.575
198.575
198.574
198.573
198.573
198.572
198.572
198.571
198.571
198.57
198.57
198.569
198.569
198.568
198.568
198.568
198.567
198.567
198.566
198.566
198.565
198.565
198.564
198.564
198.563
198.563
198.562
198.562
198.561
198.561
198.56
198.56
198.56
198.559
198.559
198.558
198.558
198.558
198.557
198.557
198.557
198.557
198.556
198.556
198.556
198.556
198.555
198.555
198.555
198.555
198.555
198.554
198.554
198.554
198.554
198.554
198.554
198.553
198.553
198.553
198.553
198.553
198.553
198.553
198.552
198.552
198.552
198.552
198.552
198.551
198.551
198.551
198.551
198.55
198.55
198.55
198.55
198.55
198.549
198.549
198.549
198.549
198.548
198.548
198.548
198.548
198.548
198.547
198.547
198.547
198.547
198.547
198.546
198.546
198.546
198.546
198.546
198.546
198.546
198.545
198.545
198.545
198.545
198.545
198.545
198.545
198.545
198.545
198.544
198.544
198.544
198.544
198.544
198.544
198.543
198.543
198.543
198.543
198.543
198.543
198.542
198.542
198.542
198.542
198.541
198.541
198.541
198.541
198.541
198.541
198.54
198.54
198.54
198.539
198.539
198.539
198.539
198.539
198.539
198.539
198.538
198.538
198.537
198.537
198.537
198.536
198.536
198.536
198.541
198.549
198.559
198.581
198.645
198.784
198.826
198.707
198.584
198.501
198.479
198.495
198.503
198.496
198.502
198.528
198.542
198.528
198.515
198.53
198.552
198.541
198.514
198.518
198.549
198.554
198.526
198.511
198.537
198.56
198.542
198.512
198.518
198.547
198.548
198.517
198.506
198.534
198.553
198.529
198.504
198.52
198.551
198.542
198.51
198.508
198.539
198.552
198.525
198.502
198.522
198.551
198.539
198.507
198.51
198.542
198.548
198.517
198.502
198.529
198.552
198.531
198.501
198.513
198.547
198.545
198.512
198.501
198.53
198.55
198.527
198.5
198.516
198.547
198.539
198.506
198.503
198.535
198.548
198.519
198.496
198.52
198.55
198.533
198.498
198.504
198.54
198.546
198.511
198.494
198.522
198.548
198.528
198.495
198.506
198.541
198.54
198.504
198.494
198.527
198.547
198.518
198.489
198.51
198.545
198.534
198.496
198.494
198.53
198.544
198.512
198.486
198.511
198.543
198.528
198.49
198.494
198.532
198.538
198.502
198.483
198.514
198.542
198.516
198.48
198.495
198.535
198.53
198.488
198.479
198.517
198.538
198.503
198.469
198.492
198.532
198.519
198.476
198.471
198.509
198.526
198.491
198.46
198.484
198.519
198.502
198.459
198.459
198.497
198.506
198.466
198.439
198.468
198.497
198.471
198.428
198.436
198.474
198.47
198.422
198.403
198.437
198.457
198.418
198.374
198.389
198.424
198.407
198.353
198.337
198.369
198.378
198.33
198.285
198.298
198.324
198.293
198.233
198.216
198.24
198.233
198.173
198.125
198.131
198.14
198.091
198.022
197.998
198.003
197.973
197.898
197.84
197.824
197.805
197.734
197.648
197.6
197.572
197.507
197.399
197.308
197.251
197.188
197.061
196.918
196.82
196.747
196.61
196.404
196.236
196.125
195.976
195.702
195.416
195.216
195.037
194.696
194.239
193.887
193.634
193.175
192.384
191.662
190.911
189.425
185.995
177.268
148.71
83.6837
25.8179
6.68048
1.61895
0.385284
0.0912824
0.0216057
0.00511211
0.00120941
0.000286099
6.76778e-05
1.60093e-05
3.78699e-06
8.95808e-07
2.11909e-07
5.01368e-08
1.18745e-08
2.82381e-09
6.8394e-10
1.79561e-10
6.05124e-11
3.41222e-11
2.83268e-11
2.93401e-11
2.97097e-11
3.04657e-11
3.0378e-11
3.07384e-11
2.80481e-11
2.59148e-11
2.45425e-11
2.40881e-11
2.30444e-11
1.92583e-11
2.13497e-11
2.12778e-11
2.03e-11
2.12821e-11
2.1559e-11
2.19614e-11
2.1877e-11
2.22467e-11
2.0192e-11
2.01873e-11
1.90737e-11
1.88091e-11
1.83908e-11
1.8748e-11
2.02854e-11
2.14765e-11
2.21947e-11
1.97848e-11
2.0784e-11
2.03354e-11
2.30567e-11
2.5121e-11
2.47574e-11
2.2226e-11
2.21029e-11
2.01419e-11
2.27704e-11
2.05642e-11
2.21959e-11
2.03714e-11
2.05692e-11
2.0905e-11
2.17446e-11
1.89869e-11
1.98479e-11
2.11597e-11
2.01774e-11
2.30194e-11
2.28284e-11
2.21232e-11
2.29541e-11
2.5353e-11
2.72294e-11
3.03495e-11
2.86302e-11
3.14784e-11
3.1061e-11
3.20074e-11
2.99645e-11
3.39309e-11
3.11548e-11
3.23432e-11
3.03071e-11
2.90838e-11
2.77734e-11
3.03453e-11
3.04523e-11
3.06573e-11
3.09296e-11
3.13384e-11
3.06119e-11
2.81102e-11
2.93769e-11
2.88733e-11
2.80919e-11
2.88485e-11
2.83505e-11
3.09787e-11
2.89414e-11
3.08425e-11
3.03921e-11
3.3358e-11
3.16049e-11
3.10269e-11
3.20756e-11
3.03899e-11
2.82572e-11
2.59592e-11
2.33734e-11
2.07328e-11
2.05717e-11
1.87277e-11
1.88636e-11
1.91737e-11
2.23854e-11
2.08112e-11
1.92829e-11
1.8907e-11
1.8664e-11
1.796e-11
1.89578e-11
1.69164e-11
1.94043e-11
1.87152e-11
1.99375e-11
1.93192e-11
1.962e-11
1.75809e-11
1.97948e-11
1.99163e-11
1.89195e-11
1.96063e-11
1.9224e-11
1.99625e-11
2.16221e-11
2.42475e-11
2.26432e-11
2.25157e-11
2.3564e-11
2.49989e-11
2.15992e-11
2.02082e-11
1.68664e-11
1.87126e-11
1.85193e-11
2.30464e-11
2.3124e-11
2.7297e-11
2.25537e-11
2.54483e-11
2.56882e-11
)
;

boundaryField
{
    sides
    {
        type            calculated;
        value           nonuniform List<scalar> 2(2.56882e-11 1.65992e-11);
    }
    empty
    {
        type            empty;
    }
}


// ************************************************************************* //
