/*--------------------------------*- C++ -*----------------------------------*\
| =========                 |                                                 |
| \\      /  F ield         | OpenFOAM: The Open Source CFD Toolbox           |
|  \\    /   O peration     | Version:  4.1                                   |
|   \\  /    A nd           | Web:      www.OpenFOAM.org                      |
|    \\/     M anipulation  |                                                 |
\*---------------------------------------------------------------------------*/
FoamFile
{
    version     2.0;
    format      ascii;
    class       volScalarField;
    location    "0.0064";
    object      p;
}
// * * * * * * * * * * * * * * * * * * * * * * * * * * * * * * * * * * * * * //

dimensions      [1 -1 -2 0 0 0 0];

internalField   nonuniform List<scalar> 
1000
(
100000
100000
100000
100000
100000
100000
100000
100000
100000
100000
100000
100000
100000
100000
100000
100000
100000
100000
100000
100000
100000
100000
100000
100000
100000
100000
100000
100000
100000
100000
100000
100000
100000
100000
100000
100000
100000
100000
100000
100000
100000
100000
100000
100000
100000
100000
100000
100000
100000
100000
100000
100000
100000
100000
100000
100000
100000
100000
100000
100000
100000
100000
100000
100000
100000
100000
100000
100000
100000
100000
100000
100000
100000
100000
100000
100000
100000
100000
100000
100000
100000
100000
100000
100000
100000
100000
100000
100000
100000
100000
100000
100000
100000
100000
100000
100000
100000
100000
100000
100000
100000
100000
100000
100000
100000
100000
100000
100000
100000
100000
100000
100000
100000
100000
100000
100000
100000
100000
100000
100000
100000
100000
100000
100000
100000
100000
100000
100000
100000
100000
100000
100000
100000
100000
100000
100000
100000
100000
100000
100000
100000
100000
100000
100000
100000
100000
100000
100000
100000
100000
100000
100000
100000
100000
100000
100000
100000
100000
100000
100000
100000
100000
100000
100000
100000
100000
100000
100000
100000
100000
100000
100000
100000
100000
100000
100000
100000
100000
100000
100000
100000
100000
100000
100000
100000
100000
100000
100000
100000
100000
100000
100000
100000
100000
100000
100000
100000
100000
100000
100000
100000
100000
100000
100000
100000
100000
100000
100000
100000
100000
100000
100000
99999.9
99999.9
99999.8
99999.7
99999.5
99999.2
99998.7
99997.9
99996.7
99994.9
99992.2
99988.2
99982.4
99973.9
99961.9
99944.9
99921.4
99889.4
99846.3
99789.5
99715.9
99622.2
99505.5
99363
99193.4
98996.9
98776.2
98534.1
98273.3
97995.8
97703.2
97397.4
97079.9
96752.3
96415.8
96071.7
95721.2
95365.1
95004.4
94639.8
94271.8
93901.1
93528.1
93153.2
92776.8
92399.1
92020.4
91641
91261.1
90880.8
90500.3
90119.6
89739.1
89358.7
88978.5
88598.7
88219.3
87840.4
87462
87084.3
86707.2
86330.8
85955.1
85580.3
85206.2
84833.1
84460.8
84089.4
83719
83349.6
82981.1
82613.7
82247.3
81881.9
81517.6
81154.4
80792.3
80431.3
80071.4
79712.7
79355.1
78998.7
78643.4
78289.4
77936.5
77584.8
77234.3
76885
76537
76190.1
75844.6
75500.2
75157.1
74815.2
74474.6
74135.3
73797.2
73460.4
73124.9
72790.7
72457.7
72126
71795.6
71466.6
71138.8
70812.3
70487.2
70163.3
69840.8
69519.5
69199.7
68881.1
68563.8
68247.9
67933.4
67620.2
67308.3
66997.7
66688.6
66380.7
66074.3
65769.2
65465.5
65163.1
64862.1
64562.5
64264.3
63967.5
63672.2
63378.2
63085.6
62794.4
62504.7
62216.4
61929.6
61644.2
61360.3
61077.9
60796.9
60517.5
60239.5
59963.1
59688.2
59414.9
59143.1
58873
58604.4
58337.5
58072.2
57808.5
57546.6
57286.4
57027.9
56771.2
56516.4
56263.3
56012.2
55762.9
55515.7
55270.4
55027.2
54786.1
54547.2
54310.5
54076.1
53844.1
53614.6
53387.6
53163.2
52941.5
52722.7
52506.8
52294
52084.3
51878.2
51675.3
51476.3
51280.9
51089.7
50902.6
50720
50542
50368.9
50201
50038.4
49881.5
49730.5
49585.6
49447.4
49315.7
49191.1
49073.8
48963.9
48861.7
48767.2
48680.6
48602
48531.2
48468.2
48412.9
48364.8
48323.9
48289.3
48260.9
48238
48220
48206.2
48196.3
48189.4
48184.7
48182.2
48181.2
48181
48181.1
48181.2
48181.5
48182
48183.1
48185.3
48187.5
48189.8
48191.9
48193.6
48194.9
48195.9
48196.8
48197.4
48197.8
48198.1
48198.3
48198.5
48198.6
48198.7
48198.8
48198.9
48199.1
48199.2
48199.3
48199.4
48199.5
48199.6
48199.7
48199.8
48199.9
48200
48200.1
48200.2
48200.3
48200.4
48200.5
48200.6
48200.6
48200.7
48200.8
48200.9
48201
48201.1
48201.2
48201.3
48201.3
48201.4
48201.5
48201.6
48201.7
48201.7
48201.8
48201.9
48202
48202
48202.1
48202.2
48202.3
48202.4
48202.4
48202.5
48202.6
48202.7
48202.7
48202.8
48202.9
48203
48203
48203.1
48203.2
48203.3
48203.3
48203.4
48203.5
48203.5
48203.6
48203.7
48203.7
48203.8
48203.8
48203.9
48203.9
48203.9
48204
48204
48204
48204.1
48204.1
48204.1
48204.2
48204.2
48204.2
48204.2
48204.2
48204.2
48204.3
48204.3
48204.3
48204.3
48204.3
48204.3
48204.3
48204.3
48204.4
48204.4
48204.4
48204.4
48204.4
48204.4
48204.5
48204.5
48204.5
48204.5
48204.5
48204.6
48204.6
48204.6
48204.6
48204.7
48204.7
48204.7
48204.7
48204.7
48204.8
48204.8
48204.8
48204.8
48204.8
48204.8
48204.8
48204.8
48204.8
48204.9
48204.9
48204.9
48204.9
48204.9
48204.9
48204.9
48204.9
48204.9
48204.9
48204.9
48205
48205
48205
48205
48205
48205
48205
48205
48205
48205
48205
48205
48205
48205
48205
48205
48205
48205
48205.1
48205.1
48205.1
48205.1
48205.1
48205.1
48205.1
48205.2
48205.2
48205.2
48205.2
48205.2
48205.2
48205.2
48205.2
48205.3
48205.3
48205.3
48205.3
48205.3
48205.4
48205.3
48205.3
48205.3
48205.3
48205.2
48205.3
48205.3
48205.4
48205.1
48204.9
48204.9
48205.6
48207.5
48210.1
48211.9
48201.8
48203.2
48201
48196
48203.3
48210.9
48210.2
48201.1
48200.6
48209.8
48211.9
48201.9
48197.7
48206.5
48213.7
48206.9
48196.2
48199.7
48213.6
48213.7
48198.4
48194.8
48209
48215.8
48205.9
48195.6
48200.6
48214
48212.7
48197.4
48195.6
48210.8
48216
48202.7
48194.1
48204.3
48215.9
48210.4
48195.5
48196.9
48213.1
48215.8
48200.7
48194.1
48205.7
48215.9
48208.7
48194.9
48198.4
48214.3
48214.5
48197.8
48194.3
48209.6
48216.8
48204.6
48193.4
48201.1
48216
48213.4
48196.1
48194.6
48210.8
48216.2
48202.9
48193.7
48203.2
48215.9
48210.7
48194.8
48196
48213.2
48215.9
48199.4
48192.8
48206.5
48217.1
48207.3
48193
48197.9
48215.1
48214.8
48197.1
48192.9
48208.3
48216.7
48205.2
48192.8
48199.7
48215.4
48212.8
48195
48193.6
48211.3
48216.8
48200.9
48191.4
48203.5
48216.8
48209.7
48192.8
48194.6
48213.4
48216.1
48198.3
48191.1
48205.4
48216.7
48207.2
48192
48196.2
48214.4
48214.5
48195.3
48191
48208.7
48217.2
48202.5
48189.8
48199.4
48216.3
48211.7
48191.4
48191
48212
48217.1
48197.8
48187.8
48201.8
48216.5
48209
48189.7
48190.8
48211.5
48215.2
48195.9
48187.3
48201.7
48214.9
48205.3
48187.6
48190.9
48211.1
48212.3
48191.3
48185.2
48202.4
48213.1
48199
48183.5
48190.8
48210
48206.8
48184.1
48181.6
48202
48209.1
48189.4
48177
48188.5
48205.4
48197.5
48175.3
48175
48195.7
48200
48177.3
48167.2
48179.7
48194.2
48182
48161.9
48163
48182.1
48182.7
48157.3
48150.1
48162.4
48173.3
48155.7
48138.6
48139.6
48154.6
48151
48125.4
48119.8
48126.6
48134
48112
48096.7
48094.9
48102.7
48095.2
48065.8
48059.1
48060.1
48065.2
48032.2
48010.1
48005.2
48011.1
47992.4
47941.7
47929.3
47930
47931.8
47858.7
47825.9
47818.4
47829.1
47757.7
47669.7
47645.1
47652.4
47614.5
47435
47360.7
47288.7
47191.2
46813
45619.3
42775.2
32309.2
27142.3
25546.6
25131.9
25031.3
25007.4
25001.8
25000.4
25000.1
25000
25000
25000
25000
25000
25000
25000
25000
25000
25000
25000
25000
25000
25000
25000
25000
25000
25000
25000
25000
25000
25000
25000
25000
25000
25000
25000
25000
25000
25000
25000
25000
25000
25000
25000
25000
25000
25000
25000
25000
25000
25000
25000
25000
25000
25000
25000
25000
25000
25000
25000
25000
25000
25000
25000
25000
25000
25000
25000
25000
25000
25000
25000
25000
25000
25000
25000
25000
25000
25000
25000
25000
25000
25000
25000
25000
25000
25000
25000
25000
25000
25000
25000
25000
25000
25000
25000
25000
25000
25000
25000
25000
25000
25000
25000
25000
25000
25000
25000
25000
25000
25000
25000
25000
25000
25000
25000
25000
25000
25000
25000
25000
25000
25000
25000
25000
25000
25000
25000
25000
25000
25000
25000
25000
25000
25000
25000
25000
25000
25000
25000
25000
25000
25000
25000
25000
25000
25000
25000
25000
25000
25000
25000
25000
25000
25000
)
;

boundaryField
{
    sides
    {
        type            zeroGradient;
    }
    empty
    {
        type            empty;
    }
}


// ************************************************************************* //
