/*--------------------------------*- C++ -*----------------------------------*\
| =========                 |                                                 |
| \\      /  F ield         | OpenFOAM: The Open Source CFD Toolbox           |
|  \\    /   O peration     | Version:  4.1                                   |
|   \\  /    A nd           | Web:      www.OpenFOAM.org                      |
|    \\/     M anipulation  |                                                 |
\*---------------------------------------------------------------------------*/
FoamFile
{
    version     2.0;
    format      ascii;
    class       surfaceScalarField;
    location    "0.0064";
    object      phi;
}
// * * * * * * * * * * * * * * * * * * * * * * * * * * * * * * * * * * * * * //

dimensions      [1 0 -1 0 0 0 0];

internalField   nonuniform List<scalar> 
999
(
-5.99627e-11
-5.79305e-11
-6.41478e-11
-6.64002e-11
-6.99103e-11
-7.99005e-11
-8.62741e-11
-9.00755e-11
-9.33298e-11
-9.51133e-11
-9.53548e-11
-9.59801e-11
-9.13829e-11
-8.90665e-11
-8.70841e-11
-8.7752e-11
-8.40075e-11
-8.80647e-11
-9.08642e-11
-8.64162e-11
-8.12435e-11
-7.95737e-11
-8.4512e-11
-8.27001e-11
-8.1215e-11
-8.32614e-11
-8.20961e-11
-8.27853e-11
-8.16769e-11
-8.13216e-11
-8.58122e-11
-8.17266e-11
-7.75273e-11
-7.25606e-11
-6.73808e-11
-6.08438e-11
-5.83924e-11
-5.1287e-11
-4.87006e-11
-4.33431e-11
-4.38476e-11
-3.74953e-11
-3.18465e-11
-3.05249e-11
-2.58851e-11
-2.74412e-11
-2.8308e-11
-2.32845e-11
-1.7728e-11
-1.74012e-11
-1.29745e-11
-1.06368e-11
-8.06466e-12
-4.3201e-12
-7.78755e-12
-1.34932e-11
-8.12861e-12
-5.68434e-13
-2.33769e-12
-1.39977e-12
-4.56168e-12
-1.01608e-12
-9.87654e-13
6.9349e-12
1.09353e-11
9.76996e-12
5.47118e-12
2.54374e-12
1.1795e-12
1.18661e-12
-4.12115e-13
-4.68958e-12
-3.96483e-12
1.89715e-12
4.76774e-12
6.62226e-12
2.55085e-12
-8.2423e-13
1.40687e-12
-2.91323e-12
-7.4678e-12
-8.36309e-12
-1.91136e-12
-3.21165e-12
-2.75691e-12
4.07852e-12
1.11129e-11
1.00329e-11
1.09779e-11
1.2939e-11
1.77991e-11
1.8666e-11
2.5203e-11
2.66809e-11
2.65317e-11
3.14913e-11
2.82299e-11
3.04325e-11
3.40208e-11
4.0842e-11
4.79758e-11
4.80682e-11
4.15952e-11
3.48237e-11
4.05223e-11
3.35376e-11
2.97362e-11
3.65077e-11
3.94991e-11
4.30092e-11
4.05151e-11
4.73221e-11
4.29949e-11
4.15668e-11
3.90088e-11
3.43476e-11
3.02052e-11
3.64651e-11
3.75522e-11
3.85683e-11
3.43618e-11
2.70504e-11
3.03757e-11
3.15339e-11
2.62474e-11
2.29292e-11
2.21547e-11
2.49401e-11
2.84857e-11
3.60174e-11
3.58682e-11
4.06999e-11
4.68106e-11
4.89351e-11
5.40012e-11
5.00151e-11
5.56213e-11
5.31699e-11
5.73905e-11
5.92095e-11
5.55289e-11
4.84448e-11
4.93472e-11
5.63531e-11
5.04343e-11
5.08749e-11
5.07825e-11
5.61613e-11
5.08535e-11
5.23954e-11
5.94795e-11
6.46025e-11
6.96545e-11
7.58291e-11
8.27498e-11
8.28209e-11
8.34746e-11
8.65583e-11
8.11582e-11
8.7276e-11
8.34817e-11
7.70513e-11
7.67173e-11
7.73781e-11
7.69802e-11
7.88418e-11
7.12959e-11
7.30083e-11
7.6291e-11
7.49409e-11
7.83515e-11
7.84794e-11
7.85505e-11
7.811e-11
7.03366e-11
6.94911e-11
7.48912e-11
6.92921e-11
6.92424e-11
6.85816e-11
7.35128e-11
8.11156e-11
8.51728e-11
9.19869e-11
1.02467e-10
1.29504e-10
1.90106e-10
3.12596e-10
5.5558e-10
1.03945e-09
1.98624e-09
3.82369e-09
7.36426e-09
1.41376e-08
2.69896e-08
5.12168e-08
9.65674e-08
1.8088e-07
3.36528e-07
6.21833e-07
1.14105e-06
2.07909e-06
3.76127e-06
6.75531e-06
1.20437e-05
2.13121e-05
3.74279e-05
6.5225e-05
0.000112778
0.000193451
0.000329148
0.000555414
0.000929358
0.00154176
0.00253536
0.00413213
0.00667318
0.0106764
0.0169181
0.0265467
0.0412373
0.0633975
0.0964335
0.145085
0.215827
0.31734
0.461011
0.661437
0.936849
1.30936
1.8049
2.45267
3.28401
4.33031
5.62002
7.17414
8.99942
11.0794
13.3825
15.8794
18.5471
21.3665
24.3196
27.3895
30.5603
33.8173
37.1471
40.5378
43.979
47.4613
50.9769
54.5188
58.0812
61.6588
65.2474
68.8432
72.4428
76.0435
79.6429
83.2386
86.829
90.4124
93.9873
97.5524
101.107
104.649
108.179
111.695
115.197
118.684
122.155
125.611
129.05
132.472
135.878
139.265
142.635
145.986
149.32
152.634
155.93
159.207
162.465
165.703
168.922
172.121
175.3
178.46
181.6
184.72
187.819
190.899
193.958
196.998
200.016
203.015
205.993
208.951
211.888
214.805
217.701
220.577
223.432
226.267
229.081
231.875
234.648
237.401
240.133
242.845
245.536
248.207
250.858
253.488
256.097
258.686
261.255
263.804
266.332
268.84
271.327
273.794
276.242
278.669
281.075
283.462
285.829
288.175
290.502
292.808
295.095
297.361
299.608
301.835
304.042
306.229
308.396
310.544
312.672
314.78
316.869
318.938
320.987
323.017
325.027
327.017
328.988
330.94
332.872
334.785
336.678
338.551
340.405
342.24
344.055
345.85
347.626
349.383
351.119
352.837
354.534
356.212
357.87
359.508
361.127
362.725
364.304
365.862
367.4
368.918
370.415
371.891
373.347
374.781
376.195
377.587
378.957
380.305
381.632
382.934
384.217
385.47
386.709
387.91
389.105
390.252
391.398
392.495
393.579
394.638
395.643
396.667
397.596
398.56
399.446
400.307
401.171
401.93
402.727
403.444
404.111
404.801
405.374
405.954
406.504
406.953
407.427
407.833
408.167
408.52
408.798
409.024
409.261
409.432
409.562
409.7
409.791
409.849
409.913
409.952
409.968
409.983
409.994
409.994
409.989
409.987
409.985
409.981
409.976
409.968
409.958
409.946
409.935
409.927
409.918
409.911
409.906
409.902
409.899
409.898
409.896
409.894
409.892
409.891
409.889
409.887
409.886
409.885
409.884
409.882
409.881
409.879
409.878
409.876
409.875
409.873
409.872
409.871
409.869
409.868
409.867
409.865
409.863
409.862
409.86
409.859
409.858
409.856
409.855
409.853
409.852
409.85
409.848
409.847
409.845
409.844
409.842
409.841
409.839
409.837
409.836
409.834
409.832
409.831
409.829
409.827
409.825
409.824
409.822
409.82
409.818
409.817
409.815
409.813
409.811
409.809
409.807
409.805
409.803
409.801
409.799
409.798
409.796
409.794
409.792
409.79
409.787
409.785
409.784
409.782
409.779
409.777
409.776
409.773
409.771
409.768
409.767
409.765
409.762
409.759
409.757
409.755
409.753
409.75
409.747
409.745
409.743
409.74
409.737
409.735
409.733
409.73
409.726
409.723
409.721
409.718
409.714
409.71
409.707
409.705
409.702
409.697
409.693
409.691
409.688
409.685
409.679
409.674
409.671
409.668
409.665
409.659
409.652
409.648
409.645
409.641
409.634
409.629
409.624
409.619
409.616
409.613
409.607
409.599
409.59
409.583
409.579
409.576
409.572
409.564
409.553
409.542
409.534
409.53
409.526
409.521
409.511
409.497
409.483
409.472
409.466
409.462
409.457
409.444
409.424
409.405
409.39
409.382
409.377
409.37
409.356
409.329
409.302
409.279
409.264
409.256
409.25
409.238
409.208
409.163
409.118
409.08
409.054
409.038
409.03
409.02
409.001
408.943
408.827
408.716
408.62
408.547
408.5
408.477
408.473
408.493
408.606
408.747
408.82
408.859
408.773
407.587
400.508
380.432
359.864
341.299
325.602
313.009
302.744
294.475
288.224
283.833
280.661
278.183
276.339
275.248
274.767
274.303
273.649
273.372
273.594
273.651
273.352
273.108
273.234
273.534
273.508
273.157
273.102
273.463
273.565
273.272
273.093
273.296
273.563
273.467
273.125
273.143
273.528
273.583
273.195
273.093
273.4
273.589
273.428
273.128
273.181
273.547
273.577
273.18
273.107
273.468
273.604
273.346
273.114
273.271
273.592
273.54
273.148
273.122
273.547
273.631
273.278
273.11
273.324
273.6
273.508
273.151
273.161
273.561
273.616
273.217
273.106
273.422
273.628
273.433
273.119
273.212
273.604
273.604
273.164
273.096
273.516
273.653
273.355
273.106
273.263
273.613
273.576
273.161
273.117
273.551
273.652
273.278
273.094
273.354
273.644
273.506
273.123
273.153
273.598
273.655
273.193
273.075
273.445
273.662
273.445
273.109
273.189
273.609
273.633
273.169
273.079
273.507
273.669
273.356
273.084
273.262
273.641
273.582
273.121
273.085
273.59
273.69
273.22
273.041
273.373
273.68
273.5
273.074
273.108
273.611
273.682
273.167
273.033
273.405
273.663
273.456
273.071
273.131
273.6
273.639
273.124
273.022
273.455
273.656
273.354
273.031
273.168
273.602
273.572
273.061
273.001
273.513
273.646
273.182
272.958
273.223
273.599
273.448
272.966
272.966
273.497
273.585
273.021
272.874
273.211
273.529
273.286
272.861
272.896
273.393
273.438
272.851
272.746
273.114
273.373
273.004
272.674
272.748
273.186
273.153
272.599
272.533
272.848
273.069
272.578
272.375
272.426
272.77
272.674
272.163
272.133
272.289
272.515
271.903
271.74
271.769
272.039
271.852
271.175
271.148
271.322
271.619
270.506
270.297
270.397
270.887
270.139
269.081
269.058
269.488
269.625
267.377
267.135
267.413
268.253
265.268
263.934
263.678
263.512
263.299
254.663
226.465
153.733
47.3777
12.9354
3.1831
0.759094
0.179897
0.0425822
0.0100763
0.00238396
0.00056397
0.000133411
3.15588e-05
7.46525e-06
1.7659e-06
4.17723e-07
9.88185e-08
2.33855e-08
5.5437e-09
1.32393e-09
3.26766e-10
9.18448e-11
3.72982e-11
2.59277e-11
2.46896e-11
2.58513e-11
2.60236e-11
2.64659e-11
2.66134e-11
2.57554e-11
2.33698e-11
2.1549e-11
2.13642e-11
2.05223e-11
1.86962e-11
1.71241e-11
1.87743e-11
1.81561e-11
1.803e-11
1.838e-11
1.9142e-11
1.94476e-11
1.86731e-11
1.87246e-11
1.73994e-11
1.71454e-11
1.62235e-11
1.6561e-11
1.56888e-11
1.72395e-11
1.78488e-11
1.95772e-11
1.78915e-11
1.77742e-11
1.74634e-11
1.90621e-11
2.0739e-11
2.21902e-11
2.04583e-11
1.90195e-11
1.81757e-11
1.85398e-11
1.93197e-11
1.83089e-11
1.86979e-11
1.7776e-11
1.77405e-11
1.86375e-11
1.78257e-11
1.66001e-11
1.80833e-11
1.78346e-11
1.88454e-11
1.99449e-11
1.98526e-11
1.93872e-11
2.07834e-11
2.28244e-11
2.51017e-11
2.58815e-11
2.54712e-11
2.76614e-11
2.74181e-11
2.70184e-11
2.75193e-11
2.88409e-11
2.68887e-11
2.78177e-11
2.56772e-11
2.43023e-11
2.5203e-11
2.65779e-11
2.62457e-11
2.73612e-11
2.67004e-11
2.74589e-11
2.50129e-11
2.48193e-11
2.58318e-11
2.4432e-11
2.50022e-11
2.45315e-11
2.61355e-11
2.58282e-11
2.59064e-11
2.64482e-11
2.77804e-11
2.82459e-11
2.72102e-11
2.72724e-11
2.772e-11
2.52669e-11
2.32507e-11
2.15561e-11
1.93054e-11
1.76286e-11
1.74616e-11
1.5941e-11
1.64349e-11
1.84954e-11
1.88187e-11
1.70903e-11
1.68132e-11
1.65521e-11
1.58202e-11
1.5925e-11
1.56231e-11
1.60441e-11
1.61098e-11
1.70228e-11
1.73035e-11
1.6799e-11
1.61275e-11
1.59304e-11
1.75309e-11
1.67049e-11
1.71401e-11
1.63638e-11
1.74118e-11
1.76446e-11
2.00178e-11
2.08029e-11
1.90674e-11
2.04832e-11
2.11671e-11
2.00551e-11
1.83444e-11
1.61826e-11
1.50706e-11
1.65716e-11
1.78773e-11
2.02078e-11
2.21227e-11
2.21068e-11
2.0087e-11
2.21672e-11
)
;

boundaryField
{
    sides
    {
        type            calculated;
        value           nonuniform List<scalar> 2(2.23397e-11 5.77083e-11);
    }
    empty
    {
        type            empty;
        value           nonuniform 0();
    }
}


// ************************************************************************* //
