/*--------------------------------*- C++ -*----------------------------------*\
| =========                 |                                                 |
| \\      /  F ield         | OpenFOAM: The Open Source CFD Toolbox           |
|  \\    /   O peration     | Version:  4.1                                   |
|   \\  /    A nd           | Web:      www.OpenFOAM.org                      |
|    \\/     M anipulation  |                                                 |
\*---------------------------------------------------------------------------*/
FoamFile
{
    version     2.0;
    format      ascii;
    class       volScalarField;
    location    "0.0064";
    object      T;
}
// * * * * * * * * * * * * * * * * * * * * * * * * * * * * * * * * * * * * * //

dimensions      [0 0 0 1 0 0 0];

internalField   nonuniform List<scalar> 
1000
(
400
400
400
400
400
400
400
400
400
400
400
400
400
400
400
400
400
400
400
400
400
400
400
400
400
400
400
400
400
400
400
400
400
400
400
400
400
400
400
400
400
400
400
400
400
400
400
400
400
400
400
400
400
400
400
400
400
400
400
400
400
400
400
400
400
400
400
400
400
400
400
400
400
400
400
400
400
400
400
400
400
400
400
400
400
400
400
400
400
400
400
400
400
400
400
400
400
400
400
400
400
400
400
400
400
400
400
400
400
400
400
400
400
400
400
400
400
400
400
400
400
400
400
400
400
400
400
400
400
400
400
400
400
400
400
400
400
400
400
400
400
400
400
400
400
400
400
400
400
400
400
400
400
400
400
400
400
400
400
400
400
400
400
400
400
400
400
400
400
400
400
400
400
400
400
400
400
400
400
400
400
400
400
400
400
400
400
400
400
400
400
400
400
400
400
400
400
400
400
400
400
400
400
400
400
400
400
400
400
400
400
400
400
400
400
400
399.999
399.999
399.998
399.998
399.996
399.994
399.991
399.987
399.98
399.97
399.956
399.937
399.91
399.873
399.824
399.759
399.674
399.567
399.433
399.269
399.074
398.847
398.593
398.313
398.011
397.689
397.349
396.992
396.621
396.238
395.843
395.438
395.025
394.604
394.176
393.742
393.304
392.86
392.413
391.962
391.508
391.052
390.592
390.131
389.667
389.202
388.735
388.266
387.796
387.325
386.853
386.38
385.905
385.43
384.955
384.478
384.001
383.523
383.045
382.566
382.087
381.607
381.127
380.647
380.166
379.685
379.204
378.723
378.241
377.76
377.278
376.796
376.314
375.832
375.35
374.868
374.386
373.904
373.422
372.94
372.458
371.977
371.495
371.013
370.532
370.051
369.569
369.088
368.608
368.127
367.646
367.166
366.686
366.206
365.727
365.248
364.769
364.29
363.812
363.334
362.856
362.379
361.901
361.425
360.948
360.473
359.997
359.522
359.047
358.573
358.099
357.626
357.153
356.68
356.208
355.737
355.266
354.796
354.326
353.857
353.388
352.92
352.453
351.986
351.52
351.055
350.59
350.127
349.663
349.201
348.74
348.279
347.819
347.36
346.902
346.445
345.989
345.533
345.079
344.626
344.174
343.724
343.274
342.826
342.379
341.934
341.489
341.047
340.606
340.166
339.729
339.293
338.859
338.426
337.996
337.569
337.143
336.72
336.299
335.881
335.466
335.053
334.645
334.236
333.84
333.431
333.053
332.636
332.291
331.85
331.555
331.082
330.836
330.353
330.113
329.687
329.38
329.077
328.678
328.468
328.074
327.822
327.564
327.213
327.048
326.74
326.501
326.344
326.055
325.91
325.747
325.523
325.433
325.287
325.133
325.077
324.968
324.872
324.84
324.775
324.719
324.705
324.677
324.648
324.644
324.639
324.63
324.629
324.631
324.632
324.632
324.632
324.634
324.638
324.643
324.646
324.653
324.656
324.659
324.664
324.665
324.667
324.669
324.67
324.671
324.672
324.673
324.674
324.674
324.676
324.676
324.677
324.678
324.679
324.679
324.68
324.681
324.682
324.683
324.684
324.684
324.685
324.686
324.687
324.688
324.689
324.69
324.69
324.691
324.692
324.693
324.694
324.695
324.696
324.696
324.697
324.699
324.699
324.7
324.701
324.702
324.703
324.704
324.705
324.706
324.707
324.708
324.71
324.71
324.711
324.713
324.714
324.715
324.716
324.717
324.718
324.719
324.721
324.722
324.723
324.724
324.725
324.727
324.728
324.729
324.73
324.732
324.733
324.734
324.736
324.737
324.739
324.74
324.741
324.743
324.745
324.746
324.747
324.749
324.751
324.752
324.753
324.754
324.757
324.759
324.759
324.761
324.763
324.766
324.767
324.768
324.77
324.773
324.775
324.776
324.778
324.781
324.783
324.785
324.786
324.789
324.792
324.794
324.796
324.798
324.801
324.804
324.807
324.808
324.81
324.814
324.818
324.821
324.823
324.825
324.828
324.833
324.837
324.84
324.842
324.844
324.849
324.855
324.859
324.862
324.864
324.867
324.872
324.879
324.886
324.89
324.892
324.894
324.898
324.906
324.915
324.923
324.928
324.93
324.932
324.938
324.948
324.96
324.97
324.976
324.979
324.982
324.988
325.002
325.018
325.032
325.041
325.045
325.048
325.055
325.072
325.094
325.115
325.13
325.138
325.142
325.148
325.163
325.194
325.231
325.265
325.292
325.308
325.316
325.321
325.33
325.356
325.429
325.522
325.608
325.678
325.724
325.749
325.757
325.753
325.709
325.596
325.5
325.448
325.455
325.834
328.683
340.103
359.827
380.023
399.494
417.418
433.178
446.449
457.189
465.616
472.033
476.738
480.07
482.397
484.013
485.093
485.761
486.163
486.44
486.646
486.745
486.753
486.77
486.824
486.852
486.827
486.79
486.797
486.838
486.836
486.785
486.772
486.814
486.831
486.791
486.759
486.782
486.818
486.805
486.754
486.75
486.798
486.808
486.762
486.736
486.764
486.797
486.779
486.731
486.734
486.783
486.786
486.734
486.717
486.758
486.782
486.749
486.709
486.724
486.772
486.768
486.712
486.702
486.748
486.767
486.729
486.696
486.717
486.759
486.748
486.695
486.692
486.744
486.756
486.707
486.682
486.718
486.753
486.729
486.68
486.687
486.742
486.745
486.69
486.672
486.714
486.743
486.713
486.67
486.683
486.734
486.731
486.674
486.664
486.715
486.736
486.691
486.657
486.687
486.731
486.716
486.659
486.658
486.715
486.728
486.676
486.649
486.686
486.724
486.702
486.651
486.657
486.714
486.72
486.661
486.642
486.692
486.722
486.683
486.639
486.66
486.716
486.709
486.643
486.636
486.699
486.719
486.664
486.628
486.662
486.711
486.696
486.632
486.629
486.692
486.708
486.653
486.622
486.659
486.704
486.682
486.623
486.626
486.689
486.698
486.635
486.611
486.658
486.696
486.66
486.607
486.621
486.684
486.681
486.61
486.597
486.656
486.683
486.629
486.585
486.612
486.668
486.652
486.58
486.573
486.635
486.654
486.588
486.552
486.584
486.634
486.606
486.538
486.536
486.594
486.604
486.527
486.502
486.534
486.573
486.527
486.468
486.467
486.513
486.512
486.431
486.412
486.428
486.455
486.395
486.345
486.34
486.364
486.354
486.255
486.231
486.234
486.258
486.165
486.091
486.079
486.093
486.052
485.892
485.859
485.848
485.868
485.673
485.563
485.517
485.559
485.4
485.081
485.009
485.067
485.019
484.364
484.159
483.988
483.614
482.505
479.228
472.04
433.326
409.79
402.504
400.604
400.143
400.034
400.008
400.002
400
400
400
400
400
400
400
400
400
400
400
400
400
400
400
400
400
400
400
400
400
400
400
400
400
400
400
400
400
400
400
400
400
400
400
400
400
400
400
400
400
400
400
400
400
400
400
400
400
400
400
400
400
400
400
400
400
400
400
400
400
400
400
400
400
400
400
400
400
400
400
400
400
400
400
400
400
400
400
400
400
400
400
400
400
400
400
400
400
400
400
400
400
400
400
400
400
400
400
400
400
400
400
400
400
400
400
400
400
400
400
400
400
400
400
400
400
400
400
400
400
400
400
400
400
400
400
400
400
400
400
400
400
400
400
400
400
400
400
400
400
400
400
400
400
400
400
)
;

boundaryField
{
    sides
    {
        type            zeroGradient;
    }
    empty
    {
        type            empty;
    }
}


// ************************************************************************* //
