/*--------------------------------*- C++ -*----------------------------------*\
| =========                 |                                                 |
| \\      /  F ield         | OpenFOAM: The Open Source CFD Toolbox           |
|  \\    /   O peration     | Version:  4.1                                   |
|   \\  /    A nd           | Web:      www.OpenFOAM.org                      |
|    \\/     M anipulation  |                                                 |
\*---------------------------------------------------------------------------*/
FoamFile
{
    version     2.0;
    format      ascii;
    class       volVectorField;
    location    "0.0064";
    object      U;
}
// * * * * * * * * * * * * * * * * * * * * * * * * * * * * * * * * * * * * * //

dimensions      [0 1 -1 0 0 0 0];

internalField   nonuniform List<vector> 
1000
(
(-1.65992e-11 0 0)
(-1.69949e-11 0 0)
(-1.7423e-11 0 0)
(-1.85971e-11 0 0)
(-1.97868e-11 0 0)
(-2.11067e-11 0 0)
(-2.42901e-11 0 0)
(-2.52294e-11 0 0)
(-2.65054e-11 0 0)
(-2.77075e-11 0 0)
(-2.67362e-11 0 0)
(-2.85516e-11 0 0)
(-2.61119e-11 0 0)
(-2.67302e-11 0 0)
(-2.43386e-11 0 0)
(-2.64267e-11 0 0)
(-2.30191e-11 0 0)
(-2.62533e-11 0 0)
(-2.37133e-11 0 0)
(-2.81311e-11 0 0)
(-2.207e-11 0 0)
(-2.41295e-11 0 0)
(-2.2474e-11 0 0)
(-2.53255e-11 0 0)
(-2.25527e-11 0 0)
(-2.49184e-11 0 0)
(-2.29894e-11 0 0)
(-2.38902e-11 0 0)
(-2.36278e-11 0 0)
(-2.29685e-11 0 0)
(-2.45282e-11 0 0)
(-2.41769e-11 0 0)
(-2.31471e-11 0 0)
(-2.08238e-11 0 0)
(-2.14281e-11 0 0)
(-1.70654e-11 0 0)
(-1.8684e-11 0 0)
(-1.40507e-11 0 0)
(-1.59936e-11 0 0)
(-1.15937e-11 0 0)
(-1.39733e-11 0 0)
(-1.06522e-11 0 0)
(-1.12764e-11 0 0)
(-7.38131e-12 0 0)
(-9.8626e-12 0 0)
(-5.61279e-12 0 0)
(-9.49688e-12 0 0)
(-6.31964e-12 0 0)
(-7.20361e-12 0 0)
(-3.48009e-12 0 0)
(-6.07623e-12 0 0)
(-1.86367e-12 0 0)
(-3.67495e-12 0 0)
(-1.45392e-12 0 0)
(-9.45329e-13 0 0)
(-3.70258e-12 0 0)
(-3.64145e-12 0 0)
(-7.43823e-13 0 0)
(2.50478e-13 0 0)
(-1.09631e-12 0 0)
(-1.1457e-13 0 0)
(-2.04277e-12 0 0)
(1.39964e-12 0 0)
(-1.9149e-12 0 0)
(5.48382e-12 0 0)
(1.58006e-12 0 0)
(3.36027e-12 0 0)
(-4.99703e-13 0 0)
(2.49955e-12 0 0)
(-2.12816e-12 0 0)
(2.91334e-12 0 0)
(-3.16528e-12 0 0)
(4.98284e-13 0 0)
(-2.47127e-12 0 0)
(3.35682e-12 0 0)
(-1.99905e-13 0 0)
(3.39436e-12 0 0)
(-1.56587e-12 0 0)
(8.4175e-13 0 0)
(2.44558e-13 0 0)
(-2.27588e-12 0 0)
(-2.15018e-12 0 0)
(-2.11313e-12 0 0)
(8.27278e-13 0 0)
(-2.79552e-12 0 0)
(1.28898e-12 0 0)
(1.38763e-12 0 0)
(4.37306e-12 0 0)
(1.87802e-12 0 0)
(4.61844e-12 0 0)
(2.49501e-12 0 0)
(7.73946e-12 0 0)
(3.68072e-12 0 0)
(9.81509e-12 0 0)
(6.31896e-12 0 0)
(9.43798e-12 0 0)
(7.71173e-12 0 0)
(9.33148e-12 0 0)
(7.82914e-12 0 0)
(1.17919e-11 0 0)
(1.22861e-11 0 0)
(1.43768e-11 0 0)
(1.36921e-11 0 0)
(9.76637e-12 0 0)
(1.13017e-11 0 0)
(1.09305e-11 0 0)
(8.08614e-12 0 0)
(9.73971e-12 0 0)
(1.07098e-11 0 0)
(1.23888e-11 0 0)
(1.16514e-11 0 0)
(1.26884e-11 0 0)
(1.37825e-11 0 0)
(1.09691e-11 0 0)
(1.30681e-11 0 0)
(9.80359e-12 0 0)
(8.99992e-12 0 0)
(9.20802e-12 0 0)
(1.14343e-11 0 0)
(1.01846e-11 0 0)
(1.1545e-11 0 0)
(7.92967e-12 0 0)
(8.05722e-12 0 0)
(9.72847e-12 0 0)
(8.08944e-12 0 0)
(6.60432e-12 0 0)
(5.99735e-12 0 0)
(7.71533e-12 0 0)
(6.43359e-12 0 0)
(1.02366e-11 0 0)
(9.45813e-12 0 0)
(1.15594e-11 0 0)
(1.2728e-11 0 0)
(1.33666e-11 0 0)
(1.49297e-11 0 0)
(1.48209e-11 0 0)
(1.5539e-11 0 0)
(1.54689e-11 0 0)
(1.55756e-11 0 0)
(1.68983e-11 0 0)
(1.68977e-11 0 0)
(1.51117e-11 0 0)
(1.32746e-11 0 0)
(1.55869e-11 0 0)
(1.53078e-11 0 0)
(1.48148e-11 0 0)
(1.46547e-11 0 0)
(1.50232e-11 0 0)
(1.63755e-11 0 0)
(1.36697e-11 0 0)
(1.63963e-11 0 0)
(1.69402e-11 0 0)
(2.06174e-11 0 0)
(1.98428e-11 0 0)
(2.36242e-11 0 0)
(2.38317e-11 0 0)
(2.33755e-11 0 0)
(2.52746e-11 0 0)
(2.35714e-11 0 0)
(2.46877e-11 0 0)
(2.42438e-11 0 0)
(2.33248e-11 0 0)
(2.19965e-11 0 0)
(2.18032e-11 0 0)
(2.24687e-11 0 0)
(2.26154e-11 0 0)
(2.13974e-11 0 0)
(2.03949e-11 0 0)
(2.16022e-11 0 0)
(2.1812e-11 0 0)
(2.22967e-11 0 0)
(2.26184e-11 0 0)
(2.25943e-11 0 0)
(2.24985e-11 0 0)
(2.12702e-11 0 0)
(2.02008e-11 0 0)
(1.97246e-11 0 0)
(2.23314e-11 0 0)
(1.83095e-11 0 0)
(2.11313e-11 0 0)
(1.88553e-11 0 0)
(2.28532e-11 0 0)
(2.39948e-11 0 0)
(2.5313e-11 0 0)
(2.75237e-11 0 0)
(3.34615e-11 0 0)
(4.36766e-11 0 0)
(6.92591e-11 0 0)
(1.18028e-10 0 0)
(2.14791e-10 0 0)
(4.09053e-10 0 0)
(7.81897e-10 0 0)
(1.51054e-09 0 0)
(2.90197e-09 0 0)
(5.56258e-09 0 0)
(1.05874e-08 0 0)
(2.00386e-08 0 0)
(3.76678e-08 0 0)
(7.0348e-08 0 0)
(1.30478e-07 0 0)
(2.4035e-07 0 0)
(4.3964e-07 0 0)
(7.98488e-07 0 0)
(1.43982e-06 0 0)
(2.57736e-06 0 0)
(4.5795e-06 0 0)
(8.07584e-06 0 0)
(1.41329e-05 0 0)
(2.45413e-05 0 0)
(4.22789e-05 0 0)
(7.22525e-05 0 0)
(0.000122468 0 0)
(0.000205855 0 0)
(0.000343086 0 0)
(0.000566856 0 0)
(0.000928306 0 0)
(0.00150652 0 0)
(0.00242234 0 0)
(0.00385815 0 0)
(0.0060856 0 0)
(0.00950391 0 0)
(0.0146913 0 0)
(0.0224727 0 0)
(0.0340058 0 0)
(0.0508879 0 0)
(0.0752815 0 0)
(0.110056 0 0)
(0.158934 0 0)
(0.226632 0 0)
(0.31896 0 0)
(0.442857 0 0)
(0.606317 0 0)
(0.818151 0 0)
(1.08754 0 0)
(1.42329 0 0)
(1.83278 0 0)
(2.32021 0 0)
(2.88464 0 0)
(3.52008 0 0)
(4.2187 0 0)
(4.97367 0 0)
(5.77938 0 0)
(6.63094 0 0)
(7.52374 0 0)
(8.45341 0 0)
(9.41586 0 0)
(10.4073 0 0)
(11.4244 0 0)
(12.4639 0 0)
(13.5234 0 0)
(14.6003 0 0)
(15.6927 0 0)
(16.7989 0 0)
(17.9172 0 0)
(19.0463 0 0)
(20.1853 0 0)
(21.3329 0 0)
(22.4885 0 0)
(23.6512 0 0)
(24.8205 0 0)
(25.9957 0 0)
(27.1763 0 0)
(28.3619 0 0)
(29.5521 0 0)
(30.7465 0 0)
(31.9449 0 0)
(33.147 0 0)
(34.3524 0 0)
(35.5611 0 0)
(36.7727 0 0)
(37.9871 0 0)
(39.204 0 0)
(40.4235 0 0)
(41.6452 0 0)
(42.8691 0 0)
(44.0951 0 0)
(45.323 0 0)
(46.5527 0 0)
(47.7842 0 0)
(49.0173 0 0)
(50.2519 0 0)
(51.488 0 0)
(52.7256 0 0)
(53.9644 0 0)
(55.2045 0 0)
(56.4458 0 0)
(57.6882 0 0)
(58.9317 0 0)
(60.1762 0 0)
(61.4216 0 0)
(62.668 0 0)
(63.9152 0 0)
(65.1633 0 0)
(66.4121 0 0)
(67.6616 0 0)
(68.9119 0 0)
(70.1627 0 0)
(71.4142 0 0)
(72.6662 0 0)
(73.9188 0 0)
(75.1719 0 0)
(76.4254 0 0)
(77.6793 0 0)
(78.9336 0 0)
(80.1883 0 0)
(81.4433 0 0)
(82.6985 0 0)
(83.954 0 0)
(85.2097 0 0)
(86.4657 0 0)
(87.7217 0 0)
(88.9779 0 0)
(90.2342 0 0)
(91.4905 0 0)
(92.7469 0 0)
(94.0033 0 0)
(95.2596 0 0)
(96.5158 0 0)
(97.772 0 0)
(99.028 0 0)
(100.284 0 0)
(101.54 0 0)
(102.795 0 0)
(104.05 0 0)
(105.305 0 0)
(106.56 0 0)
(107.814 0 0)
(109.068 0 0)
(110.321 0 0)
(111.574 0 0)
(112.826 0 0)
(114.078 0 0)
(115.329 0 0)
(116.58 0 0)
(117.83 0 0)
(119.079 0 0)
(120.328 0 0)
(121.575 0 0)
(122.822 0 0)
(124.068 0 0)
(125.313 0 0)
(126.557 0 0)
(127.799 0 0)
(129.041 0 0)
(130.282 0 0)
(131.521 0 0)
(132.759 0 0)
(133.995 0 0)
(135.23 0 0)
(136.463 0 0)
(137.695 0 0)
(138.925 0 0)
(140.153 0 0)
(141.38 0 0)
(142.604 0 0)
(143.826 0 0)
(145.046 0 0)
(146.263 0 0)
(147.478 0 0)
(148.691 0 0)
(149.9 0 0)
(151.107 0 0)
(152.311 0 0)
(153.511 0 0)
(154.708 0 0)
(155.901 0 0)
(157.091 0 0)
(158.276 0 0)
(159.457 0 0)
(160.634 0 0)
(161.805 0 0)
(162.972 0 0)
(164.133 0 0)
(165.288 0 0)
(166.438 0 0)
(167.58 0 0)
(168.716 0 0)
(169.844 0 0)
(170.965 0 0)
(172.077 0 0)
(173.18 0 0)
(174.274 0 0)
(175.358 0 0)
(176.43 0 0)
(177.491 0 0)
(178.54 0 0)
(179.576 0 0)
(180.596 0 0)
(181.603 0 0)
(182.592 0 0)
(183.565 0 0)
(184.519 0 0)
(185.453 0 0)
(186.366 0 0)
(187.256 0 0)
(188.123 0 0)
(188.963 0 0)
(189.777 0 0)
(190.562 0 0)
(191.316 0 0)
(192.038 0 0)
(192.726 0 0)
(193.378 0 0)
(193.994 0 0)
(194.571 0 0)
(195.109 0 0)
(195.607 0 0)
(196.063 0 0)
(196.477 0 0)
(196.85 0 0)
(197.182 0 0)
(197.474 0 0)
(197.727 0 0)
(197.943 0 0)
(198.124 0 0)
(198.273 0 0)
(198.393 0 0)
(198.487 0 0)
(198.558 0 0)
(198.61 0 0)
(198.646 0 0)
(198.668 0 0)
(198.681 0 0)
(198.686 0 0)
(198.688 0 0)
(198.687 0 0)
(198.687 0 0)
(198.685 0 0)
(198.682 0 0)
(198.674 0 0)
(198.663 0 0)
(198.65 0 0)
(198.638 0 0)
(198.627 0 0)
(198.617 0 0)
(198.61 0 0)
(198.604 0 0)
(198.6 0 0)
(198.597 0 0)
(198.595 0 0)
(198.593 0 0)
(198.592 0 0)
(198.591 0 0)
(198.59 0 0)
(198.59 0 0)
(198.589 0 0)
(198.588 0 0)
(198.588 0 0)
(198.587 0 0)
(198.587 0 0)
(198.586 0 0)
(198.585 0 0)
(198.585 0 0)
(198.584 0 0)
(198.583 0 0)
(198.583 0 0)
(198.582 0 0)
(198.582 0 0)
(198.581 0 0)
(198.581 0 0)
(198.58 0 0)
(198.579 0 0)
(198.579 0 0)
(198.578 0 0)
(198.578 0 0)
(198.577 0 0)
(198.577 0 0)
(198.576 0 0)
(198.576 0 0)
(198.575 0 0)
(198.575 0 0)
(198.574 0 0)
(198.573 0 0)
(198.573 0 0)
(198.572 0 0)
(198.572 0 0)
(198.571 0 0)
(198.571 0 0)
(198.57 0 0)
(198.57 0 0)
(198.569 0 0)
(198.569 0 0)
(198.568 0 0)
(198.568 0 0)
(198.568 0 0)
(198.567 0 0)
(198.567 0 0)
(198.566 0 0)
(198.566 0 0)
(198.565 0 0)
(198.565 0 0)
(198.564 0 0)
(198.564 0 0)
(198.563 0 0)
(198.563 0 0)
(198.562 0 0)
(198.562 0 0)
(198.561 0 0)
(198.561 0 0)
(198.56 0 0)
(198.56 0 0)
(198.56 0 0)
(198.559 0 0)
(198.559 0 0)
(198.558 0 0)
(198.558 0 0)
(198.558 0 0)
(198.557 0 0)
(198.557 0 0)
(198.557 0 0)
(198.557 0 0)
(198.556 0 0)
(198.556 0 0)
(198.556 0 0)
(198.556 0 0)
(198.555 0 0)
(198.555 0 0)
(198.555 0 0)
(198.555 0 0)
(198.555 0 0)
(198.554 0 0)
(198.554 0 0)
(198.554 0 0)
(198.554 0 0)
(198.554 0 0)
(198.554 0 0)
(198.553 0 0)
(198.553 0 0)
(198.553 0 0)
(198.553 0 0)
(198.553 0 0)
(198.553 0 0)
(198.553 0 0)
(198.552 0 0)
(198.552 0 0)
(198.552 0 0)
(198.552 0 0)
(198.552 0 0)
(198.551 0 0)
(198.551 0 0)
(198.551 0 0)
(198.551 0 0)
(198.55 0 0)
(198.55 0 0)
(198.55 0 0)
(198.55 0 0)
(198.55 0 0)
(198.549 0 0)
(198.549 0 0)
(198.549 0 0)
(198.549 0 0)
(198.548 0 0)
(198.548 0 0)
(198.548 0 0)
(198.548 0 0)
(198.548 0 0)
(198.547 0 0)
(198.547 0 0)
(198.547 0 0)
(198.547 0 0)
(198.547 0 0)
(198.546 0 0)
(198.546 0 0)
(198.546 0 0)
(198.546 0 0)
(198.546 0 0)
(198.546 0 0)
(198.546 0 0)
(198.545 0 0)
(198.545 0 0)
(198.545 0 0)
(198.545 0 0)
(198.545 0 0)
(198.545 0 0)
(198.545 0 0)
(198.545 0 0)
(198.545 0 0)
(198.544 0 0)
(198.544 0 0)
(198.544 0 0)
(198.544 0 0)
(198.544 0 0)
(198.544 0 0)
(198.543 0 0)
(198.543 0 0)
(198.543 0 0)
(198.543 0 0)
(198.543 0 0)
(198.543 0 0)
(198.542 0 0)
(198.542 0 0)
(198.542 0 0)
(198.542 0 0)
(198.541 0 0)
(198.541 0 0)
(198.541 0 0)
(198.541 0 0)
(198.541 0 0)
(198.541 0 0)
(198.54 0 0)
(198.54 0 0)
(198.54 0 0)
(198.539 0 0)
(198.539 0 0)
(198.539 0 0)
(198.539 0 0)
(198.539 0 0)
(198.539 0 0)
(198.539 0 0)
(198.538 0 0)
(198.538 0 0)
(198.537 0 0)
(198.537 0 0)
(198.537 0 0)
(198.536 0 0)
(198.536 0 0)
(198.536 0 0)
(198.541 0 0)
(198.549 0 0)
(198.559 0 0)
(198.581 0 0)
(198.645 0 0)
(198.784 0 0)
(198.826 0 0)
(198.707 0 0)
(198.584 0 0)
(198.501 0 0)
(198.479 0 0)
(198.495 0 0)
(198.503 0 0)
(198.496 0 0)
(198.502 0 0)
(198.528 0 0)
(198.542 0 0)
(198.528 0 0)
(198.515 0 0)
(198.53 0 0)
(198.552 0 0)
(198.541 0 0)
(198.514 0 0)
(198.518 0 0)
(198.549 0 0)
(198.554 0 0)
(198.526 0 0)
(198.511 0 0)
(198.537 0 0)
(198.56 0 0)
(198.542 0 0)
(198.512 0 0)
(198.518 0 0)
(198.547 0 0)
(198.548 0 0)
(198.517 0 0)
(198.506 0 0)
(198.534 0 0)
(198.553 0 0)
(198.529 0 0)
(198.504 0 0)
(198.52 0 0)
(198.551 0 0)
(198.542 0 0)
(198.51 0 0)
(198.508 0 0)
(198.539 0 0)
(198.552 0 0)
(198.525 0 0)
(198.502 0 0)
(198.522 0 0)
(198.551 0 0)
(198.539 0 0)
(198.507 0 0)
(198.51 0 0)
(198.542 0 0)
(198.548 0 0)
(198.517 0 0)
(198.502 0 0)
(198.529 0 0)
(198.552 0 0)
(198.531 0 0)
(198.501 0 0)
(198.513 0 0)
(198.547 0 0)
(198.545 0 0)
(198.512 0 0)
(198.501 0 0)
(198.53 0 0)
(198.55 0 0)
(198.527 0 0)
(198.5 0 0)
(198.516 0 0)
(198.547 0 0)
(198.539 0 0)
(198.506 0 0)
(198.503 0 0)
(198.535 0 0)
(198.548 0 0)
(198.519 0 0)
(198.496 0 0)
(198.52 0 0)
(198.55 0 0)
(198.533 0 0)
(198.498 0 0)
(198.504 0 0)
(198.54 0 0)
(198.546 0 0)
(198.511 0 0)
(198.494 0 0)
(198.522 0 0)
(198.548 0 0)
(198.528 0 0)
(198.495 0 0)
(198.506 0 0)
(198.541 0 0)
(198.54 0 0)
(198.504 0 0)
(198.494 0 0)
(198.527 0 0)
(198.547 0 0)
(198.518 0 0)
(198.489 0 0)
(198.51 0 0)
(198.545 0 0)
(198.534 0 0)
(198.496 0 0)
(198.494 0 0)
(198.53 0 0)
(198.544 0 0)
(198.512 0 0)
(198.486 0 0)
(198.511 0 0)
(198.543 0 0)
(198.528 0 0)
(198.49 0 0)
(198.494 0 0)
(198.532 0 0)
(198.538 0 0)
(198.502 0 0)
(198.483 0 0)
(198.514 0 0)
(198.542 0 0)
(198.516 0 0)
(198.48 0 0)
(198.495 0 0)
(198.535 0 0)
(198.53 0 0)
(198.488 0 0)
(198.479 0 0)
(198.517 0 0)
(198.538 0 0)
(198.503 0 0)
(198.469 0 0)
(198.492 0 0)
(198.532 0 0)
(198.519 0 0)
(198.476 0 0)
(198.471 0 0)
(198.509 0 0)
(198.526 0 0)
(198.491 0 0)
(198.46 0 0)
(198.484 0 0)
(198.519 0 0)
(198.502 0 0)
(198.459 0 0)
(198.459 0 0)
(198.497 0 0)
(198.506 0 0)
(198.466 0 0)
(198.439 0 0)
(198.468 0 0)
(198.497 0 0)
(198.471 0 0)
(198.428 0 0)
(198.436 0 0)
(198.474 0 0)
(198.47 0 0)
(198.422 0 0)
(198.403 0 0)
(198.437 0 0)
(198.457 0 0)
(198.418 0 0)
(198.374 0 0)
(198.389 0 0)
(198.424 0 0)
(198.407 0 0)
(198.353 0 0)
(198.337 0 0)
(198.369 0 0)
(198.378 0 0)
(198.33 0 0)
(198.285 0 0)
(198.298 0 0)
(198.324 0 0)
(198.293 0 0)
(198.233 0 0)
(198.216 0 0)
(198.24 0 0)
(198.233 0 0)
(198.173 0 0)
(198.125 0 0)
(198.131 0 0)
(198.14 0 0)
(198.091 0 0)
(198.022 0 0)
(197.998 0 0)
(198.003 0 0)
(197.973 0 0)
(197.898 0 0)
(197.84 0 0)
(197.824 0 0)
(197.805 0 0)
(197.734 0 0)
(197.648 0 0)
(197.6 0 0)
(197.572 0 0)
(197.507 0 0)
(197.399 0 0)
(197.308 0 0)
(197.251 0 0)
(197.188 0 0)
(197.061 0 0)
(196.918 0 0)
(196.82 0 0)
(196.747 0 0)
(196.61 0 0)
(196.404 0 0)
(196.236 0 0)
(196.125 0 0)
(195.976 0 0)
(195.702 0 0)
(195.416 0 0)
(195.216 0 0)
(195.037 0 0)
(194.696 0 0)
(194.239 0 0)
(193.887 0 0)
(193.634 0 0)
(193.175 0 0)
(192.384 0 0)
(191.662 0 0)
(190.911 0 0)
(189.425 0 0)
(185.995 0 0)
(177.268 0 0)
(148.71 0 0)
(83.6837 0 0)
(25.8179 0 0)
(6.68048 0 0)
(1.61895 0 0)
(0.385284 0 0)
(0.0912824 0 0)
(0.0216057 0 0)
(0.00511211 0 0)
(0.00120941 0 0)
(0.000286099 0 0)
(6.76778e-05 0 0)
(1.60093e-05 0 0)
(3.78699e-06 0 0)
(8.95808e-07 0 0)
(2.11909e-07 0 0)
(5.01368e-08 0 0)
(1.18745e-08 0 0)
(2.82381e-09 0 0)
(6.8394e-10 0 0)
(1.79561e-10 0 0)
(6.05124e-11 0 0)
(3.41222e-11 0 0)
(2.83268e-11 0 0)
(2.93401e-11 0 0)
(2.97097e-11 0 0)
(3.04657e-11 0 0)
(3.0378e-11 0 0)
(3.07384e-11 0 0)
(2.80481e-11 0 0)
(2.59148e-11 0 0)
(2.45425e-11 0 0)
(2.40881e-11 0 0)
(2.30444e-11 0 0)
(1.92583e-11 0 0)
(2.13497e-11 0 0)
(2.12778e-11 0 0)
(2.03e-11 0 0)
(2.12821e-11 0 0)
(2.1559e-11 0 0)
(2.19614e-11 0 0)
(2.1877e-11 0 0)
(2.22467e-11 0 0)
(2.0192e-11 0 0)
(2.01873e-11 0 0)
(1.90737e-11 0 0)
(1.88091e-11 0 0)
(1.83908e-11 0 0)
(1.8748e-11 0 0)
(2.02854e-11 0 0)
(2.14765e-11 0 0)
(2.21947e-11 0 0)
(1.97848e-11 0 0)
(2.0784e-11 0 0)
(2.03354e-11 0 0)
(2.30567e-11 0 0)
(2.5121e-11 0 0)
(2.47574e-11 0 0)
(2.2226e-11 0 0)
(2.21029e-11 0 0)
(2.01419e-11 0 0)
(2.27704e-11 0 0)
(2.05642e-11 0 0)
(2.21959e-11 0 0)
(2.03714e-11 0 0)
(2.05692e-11 0 0)
(2.0905e-11 0 0)
(2.17446e-11 0 0)
(1.89869e-11 0 0)
(1.98479e-11 0 0)
(2.11597e-11 0 0)
(2.01774e-11 0 0)
(2.30194e-11 0 0)
(2.28284e-11 0 0)
(2.21232e-11 0 0)
(2.29541e-11 0 0)
(2.5353e-11 0 0)
(2.72294e-11 0 0)
(3.03495e-11 0 0)
(2.86302e-11 0 0)
(3.14784e-11 0 0)
(3.1061e-11 0 0)
(3.20074e-11 0 0)
(2.99645e-11 0 0)
(3.39309e-11 0 0)
(3.11548e-11 0 0)
(3.23432e-11 0 0)
(3.03071e-11 0 0)
(2.90838e-11 0 0)
(2.77734e-11 0 0)
(3.03453e-11 0 0)
(3.04523e-11 0 0)
(3.06573e-11 0 0)
(3.09296e-11 0 0)
(3.13384e-11 0 0)
(3.06119e-11 0 0)
(2.81102e-11 0 0)
(2.93769e-11 0 0)
(2.88733e-11 0 0)
(2.80919e-11 0 0)
(2.88485e-11 0 0)
(2.83505e-11 0 0)
(3.09787e-11 0 0)
(2.89414e-11 0 0)
(3.08425e-11 0 0)
(3.03921e-11 0 0)
(3.3358e-11 0 0)
(3.16049e-11 0 0)
(3.10269e-11 0 0)
(3.20756e-11 0 0)
(3.03899e-11 0 0)
(2.82572e-11 0 0)
(2.59592e-11 0 0)
(2.33734e-11 0 0)
(2.07328e-11 0 0)
(2.05717e-11 0 0)
(1.87277e-11 0 0)
(1.88636e-11 0 0)
(1.91737e-11 0 0)
(2.23854e-11 0 0)
(2.08112e-11 0 0)
(1.92829e-11 0 0)
(1.8907e-11 0 0)
(1.8664e-11 0 0)
(1.796e-11 0 0)
(1.89578e-11 0 0)
(1.69164e-11 0 0)
(1.94043e-11 0 0)
(1.87152e-11 0 0)
(1.99375e-11 0 0)
(1.93192e-11 0 0)
(1.962e-11 0 0)
(1.75809e-11 0 0)
(1.97948e-11 0 0)
(1.99163e-11 0 0)
(1.89195e-11 0 0)
(1.96063e-11 0 0)
(1.9224e-11 0 0)
(1.99625e-11 0 0)
(2.16221e-11 0 0)
(2.42475e-11 0 0)
(2.26432e-11 0 0)
(2.25157e-11 0 0)
(2.3564e-11 0 0)
(2.49989e-11 0 0)
(2.15992e-11 0 0)
(2.02082e-11 0 0)
(1.68664e-11 0 0)
(1.87126e-11 0 0)
(1.85193e-11 0 0)
(2.30464e-11 0 0)
(2.3124e-11 0 0)
(2.7297e-11 0 0)
(2.25537e-11 0 0)
(2.54483e-11 0 0)
(2.56882e-11 0 0)
)
;

boundaryField
{
    sides
    {
        type            zeroGradient;
    }
    empty
    {
        type            empty;
    }
}


// ************************************************************************* //
