/*--------------------------------*- C++ -*----------------------------------*\
| =========                 |                                                 |
| \\      /  F ield         | OpenFOAM: The Open Source CFD Toolbox           |
|  \\    /   O peration     | Version:  4.1                                   |
|   \\  /    A nd           | Web:      www.OpenFOAM.org                      |
|    \\/     M anipulation  |                                                 |
\*---------------------------------------------------------------------------*/
FoamFile
{
    version     2.0;
    format      ascii;
    class       volScalarField;
    location    "0.0034";
    object      mag(U);
}
// * * * * * * * * * * * * * * * * * * * * * * * * * * * * * * * * * * * * * //

dimensions      [0 1 -1 0 0 0 0];

internalField   nonuniform List<scalar> 
1000
(
1.44171e-11
1.57007e-11
1.73364e-11
1.53874e-11
1.37967e-11
1.56387e-11
1.79574e-11
1.91781e-11
1.84321e-11
1.92012e-11
1.69457e-11
1.9063e-11
1.82729e-11
1.96897e-11
1.65168e-11
1.61473e-11
1.36212e-11
1.6077e-11
1.28023e-11
1.74363e-11
1.4475e-11
1.56845e-11
1.48783e-11
1.58331e-11
1.16322e-11
1.52321e-11
1.12881e-11
1.28744e-11
1.25167e-11
9.9668e-12
1.17052e-11
1.27655e-11
1.41391e-11
1.26878e-11
1.61585e-11
1.35676e-11
1.61226e-11
1.14288e-11
1.51714e-11
1.07153e-11
1.21448e-11
8.20384e-12
8.93111e-12
5.86794e-12
1.03426e-11
6.58557e-12
8.01934e-12
8.1829e-12
6.84759e-12
3.36105e-12
3.6449e-12
2.27104e-12
3.05807e-12
8.11385e-13
1.63857e-12
1.43637e-12
2.91886e-12
2.13924e-12
1.29578e-12
6.64936e-12
3.61466e-12
5.93878e-12
6.81688e-12
7.52973e-12
3.18728e-12
5.02959e-12
1.52827e-12
2.79764e-12
5.45809e-13
3.80615e-12
2.8343e-13
1.08091e-12
6.29694e-13
1.05737e-12
3.64833e-12
3.6581e-12
8.49733e-13
1.05236e-12
1.3734e-12
1.12058e-12
3.78664e-12
1.21368e-12
1.71562e-12
2.38028e-12
2.82701e-12
5.96427e-12
4.05575e-12
9.10041e-12
7.30527e-12
7.72385e-12
5.10421e-12
7.43686e-12
4.07016e-12
6.91128e-12
2.91224e-12
4.88108e-12
7.04344e-13
4.96259e-12
2.78812e-12
7.71468e-12
6.76425e-12
5.05019e-12
6.59099e-12
4.96217e-12
9.78835e-12
9.03598e-12
9.45496e-12
1.15947e-11
1.17633e-11
1.10686e-11
1.16014e-11
9.6519e-12
8.09966e-12
6.3993e-12
4.17631e-12
3.91419e-12
2.01876e-12
2.86335e-12
6.15321e-12
6.79145e-12
6.67359e-12
8.52347e-12
7.07963e-12
9.24411e-12
8.51589e-12
7.11547e-12
6.01425e-12
6.47729e-12
2.16554e-12
6.24463e-12
2.82879e-12
3.74214e-12
5.9902e-12
6.42413e-12
8.95043e-12
7.22347e-12
6.0957e-12
5.55355e-12
7.1401e-12
4.83746e-12
3.54415e-12
3.7303e-12
1.4286e-12
3.73949e-12
1.96063e-12
3.2166e-12
3.22834e-12
3.36579e-12
6.65649e-12
6.11036e-12
5.42261e-12
1.97147e-12
6.65486e-12
1.77828e-12
5.95429e-12
5.13347e-12
6.62065e-12
6.07091e-12
4.80918e-12
5.56149e-12
7.6134e-12
7.25817e-12
7.06549e-12
8.16017e-12
4.40522e-12
5.61906e-12
7.68731e-12
7.28807e-12
8.15534e-12
7.53404e-12
7.20057e-12
6.68659e-12
6.45808e-12
7.92243e-12
9.19486e-12
9.99239e-12
8.92392e-12
1.21918e-11
7.7442e-12
1.16611e-11
9.3874e-12
8.22817e-12
6.4981e-12
8.23367e-12
6.29216e-12
7.95699e-12
6.30743e-12
6.74655e-12
4.3627e-12
5.40533e-12
4.12507e-12
2.93225e-12
8.85632e-12
2.71912e-12
5.06086e-12
1.78851e-12
4.07832e-12
2.97313e-13
4.08993e-12
9.75076e-13
2.41545e-12
6.2389e-13
2.35711e-12
2.02866e-12
4.3656e-12
5.58938e-12
6.73097e-12
7.8388e-12
7.54877e-12
9.5387e-12
1.07187e-11
8.92151e-12
7.84055e-12
7.94379e-12
5.45816e-12
1.03025e-11
7.04313e-12
1.10275e-11
7.84497e-12
1.04822e-11
8.46697e-12
1.27535e-11
6.94371e-12
1.23123e-11
4.74061e-12
1.09102e-11
4.76906e-12
7.58851e-12
4.79346e-12
7.09639e-12
6.29257e-12
4.40969e-12
8.98552e-12
6.78839e-12
8.63625e-12
2.37588e-12
5.27128e-12
2.04514e-12
5.36401e-12
1.46182e-13
4.37865e-12
2.05169e-12
4.75564e-12
1.77651e-12
3.43053e-12
4.01657e-12
5.07042e-12
3.80756e-12
5.02209e-12
5.68382e-12
6.5616e-12
4.56667e-12
6.34058e-12
1.43599e-12
1.89728e-12
1.54715e-12
1.00151e-12
2.04711e-12
1.96562e-12
1.92407e-12
7.77481e-13
1.35928e-12
5.55703e-12
2.92749e-12
3.97299e-12
3.77034e-12
1.77342e-12
2.40285e-12
4.7977e-12
5.56247e-12
6.52701e-12
8.7799e-12
7.47386e-12
5.60508e-12
3.4726e-12
6.15612e-12
2.60409e-12
5.64579e-12
1.22158e-12
1.62313e-12
2.62408e-12
2.21702e-12
2.73205e-12
6.41465e-12
3.27422e-12
7.51639e-12
7.40129e-12
9.6802e-12
5.88506e-12
7.93912e-12
7.54612e-12
7.52431e-12
6.44356e-12
5.45313e-12
9.2073e-12
8.81518e-12
6.52189e-12
7.4221e-12
7.36304e-12
6.42972e-12
6.38854e-12
3.91751e-12
6.6915e-12
3.57192e-12
6.1896e-12
4.46065e-12
3.3288e-12
7.09521e-12
6.75161e-12
5.8324e-12
7.74928e-12
8.0337e-12
5.25806e-12
6.57976e-12
5.07691e-12
7.99915e-12
1.10605e-11
2.64118e-11
5.94158e-11
1.36394e-10
3.18534e-10
7.31239e-10
1.65998e-09
3.72777e-09
8.28858e-09
1.82428e-08
3.97584e-08
8.5787e-08
1.83246e-07
3.87444e-07
8.10721e-07
1.67862e-06
3.43848e-06
6.96673e-06
1.39588e-05
2.76517e-05
5.41443e-05
0.000104768
0.000200278
0.00037813
0.000704891
0.00129698
0.00235464
0.00421629
0.00744344
0.0129498
0.0221917
0.0374394
0.0621485
0.101444
0.162711
0.256264
0.395993
0.599846
0.889893
1.29161
1.83193
2.53514
3.41514
4.46745
5.67452
7.01905
8.48748
10.0671
11.7448
13.5077
15.3439
17.2425
19.1941
21.1907
23.2255
25.293
27.3885
29.5082
31.6489
33.8079
35.9831
38.1725
40.3746
42.588
44.8114
47.0439
49.2845
51.5324
53.787
56.0475
58.3134
60.5841
62.8592
65.1383
67.4208
69.7065
71.9949
74.2857
76.5786
78.8733
81.1694
83.4666
85.7647
88.0634
90.3623
92.6612
94.9598
97.2578
99.5549
101.851
104.145
106.438
108.728
111.016
113.301
115.583
117.861
120.135
122.405
124.67
126.929
129.183
131.43
133.669
135.901
138.125
140.339
142.544
144.737
146.919
149.088
151.243
153.382
155.506
157.611
159.697
161.762
163.803
165.82
167.809
169.769
171.696
173.588
175.441
177.254
179.02
180.737
182.4
184.005
185.549
187.023
188.426
189.75
190.991
192.146
193.207
194.173
195.04
195.807
196.473
197.04
197.513
197.894
198.192
198.416
198.577
198.682
198.745
198.779
198.789
198.789
198.789
198.787
198.779
198.763
198.737
198.705
198.674
198.647
198.627
198.612
198.602
198.596
198.592
198.59
198.588
198.587
198.586
198.585
198.584
198.582
198.581
198.58
198.579
198.578
198.578
198.577
198.576
198.575
198.574
198.574
198.573
198.572
198.572
198.572
198.571
198.57
198.57
198.569
198.568
198.568
198.567
198.566
198.565
198.565
198.564
198.563
198.562
198.562
198.561
198.56
198.56
198.559
198.558
198.556
198.556
198.556
198.555
198.554
198.554
198.553
198.552
198.551
198.551
198.55
198.55
198.55
198.549
198.549
198.549
198.548
198.546
198.546
198.546
198.545
198.544
198.544
198.544
198.543
198.543
198.543
198.544
198.543
198.541
198.539
198.541
198.542
198.54
198.537
198.535
198.535
198.536
198.536
198.542
198.555
198.581
198.656
198.824
198.916
198.795
198.628
198.529
198.473
198.456
198.482
198.514
198.512
198.495
198.509
198.541
198.544
198.513
198.5
198.53
198.555
198.531
198.497
198.507
198.54
198.539
198.503
198.488
198.519
198.542
198.518
198.486
198.501
198.537
198.533
198.495
198.485
198.52
198.54
198.51
198.479
198.497
198.533
198.524
198.485
198.477
198.512
198.53
198.497
198.466
198.486
198.522
198.509
198.467
198.462
198.498
198.512
198.475
198.443
198.466
198.498
198.478
198.432
198.43
198.467
198.474
198.43
198.396
198.417
198.446
198.419
198.368
198.361
198.392
198.39
198.338
198.3
198.315
198.334
198.293
198.232
198.22
198.24
198.221
198.153
198.105
198.106
198.103
198.039
197.963
197.931
197.925
197.877
197.783
197.71
197.676
197.637
197.537
197.419
197.339
197.281
197.178
197.014
196.87
196.773
196.662
196.448
196.202
196.025
195.883
195.627
195.245
194.911
194.65
194.355
193.86
193.264
192.659
191.997
190.984
188.502
182.813
168.156
121.157
49.9618
13.3865
3.31884
0.794152
0.188154
0.0444606
0.0104968
0.0024774
0.000584655
0.00013797
3.2558e-05
7.68269e-06
1.81281e-06
4.2773e-07
1.0092e-07
2.38104e-08
5.61804e-09
1.32525e-09
3.12643e-10
7.042e-11
1.34912e-11
2.5772e-12
8.2058e-12
9.98131e-12
7.82771e-12
7.2921e-12
5.90488e-12
3.7202e-12
1.9383e-12
1.62533e-12
5.01861e-13
3.44072e-12
3.23321e-13
2.34211e-12
4.95346e-12
7.51977e-12
5.02607e-12
3.62755e-12
2.86398e-12
1.4681e-12
4.80773e-12
4.15237e-12
9.47451e-12
6.60787e-12
7.87023e-12
2.4144e-12
3.88305e-12
1.5734e-12
5.23517e-12
2.27735e-12
6.00485e-12
3.41666e-12
5.56402e-12
5.35691e-12
5.53247e-12
2.21711e-12
4.0037e-12
1.05031e-12
1.08626e-12
6.1178e-13
1.78936e-13
1.5743e-12
4.34982e-13
2.37529e-12
3.43877e-12
4.77583e-12
7.03271e-12
7.28489e-12
3.60065e-12
5.13891e-12
7.56832e-13
3.53485e-12
7.35745e-13
4.00565e-12
2.67424e-13
3.37428e-12
2.71856e-12
4.03144e-12
4.10223e-12
3.32199e-12
1.50106e-13
3.17929e-12
4.72662e-13
6.47717e-13
3.23484e-12
3.49485e-12
1.50412e-13
3.24023e-12
4.57032e-12
2.06473e-12
4.29755e-12
2.23754e-12
1.94608e-12
1.58675e-12
4.10021e-12
2.08081e-12
4.45676e-12
1.69581e-12
1.69675e-12
1.86812e-12
2.75344e-13
7.53006e-13
2.18873e-12
4.38537e-12
6.00283e-12
2.65697e-12
1.91129e-12
7.9565e-13
1.13375e-12
3.37915e-12
3.28805e-12
5.67657e-12
3.07199e-12
2.71861e-12
1.42675e-12
5.12295e-13
3.74283e-12
4.28379e-12
4.06199e-12
1.1627e-12
2.18532e-12
1.25963e-12
5.62043e-12
8.28621e-13
5.68527e-12
1.42906e-12
2.70302e-12
8.44684e-13
2.4344e-12
4.82032e-13
1.57442e-12
8.00195e-13
3.43345e-12
4.51625e-12
6.95513e-12
3.38506e-12
5.70122e-12
7.38544e-12
9.03281e-12
1.09012e-11
9.7082e-12
1.01621e-11
9.90013e-12
7.87656e-12
6.62399e-12
4.04739e-12
2.94994e-12
3.46593e-12
2.43684e-12
6.17494e-13
1.6565e-12
2.15299e-12
2.83966e-13
5.33278e-12
4.21817e-12
4.3209e-12
5.98773e-12
6.11313e-12
6.18139e-12
7.15681e-12
1.05197e-11
1.08142e-11
1.13541e-11
1.24905e-11
9.60366e-12
9.74599e-12
6.32065e-12
8.49134e-12
8.32819e-12
6.97647e-12
6.45047e-12
6.3767e-12
3.78641e-12
5.72873e-12
3.64572e-12
4.04805e-12
3.47276e-12
2.24906e-12
1.47179e-12
1.33147e-12
3.04397e-12
3.13508e-12
5.10451e-12
5.9038e-12
8.1638e-12
6.25526e-12
4.08745e-12
2.63454e-12
4.17789e-12
5.34638e-12
3.1883e-12
3.04764e-12
4.18853e-13
1.08402e-12
1.55645e-12
3.39181e-12
2.56196e-12
2.51118e-12
4.38306e-12
2.72361e-12
3.75537e-12
2.07974e-12
3.54425e-12
6.45943e-12
5.9341e-12
5.65203e-12
5.27917e-12
2.71863e-12
4.05997e-13
1.80609e-12
3.15833e-12
1.4793e-12
3.9544e-12
1.97749e-12
2.21801e-12
1.65013e-12
6.05289e-13
3.47e-13
6.74464e-13
4.86286e-12
1.15057e-12
1.36433e-12
1.97866e-12
3.19932e-12
1.20933e-12
8.16904e-13
4.13511e-12
1.0069e-12
8.63777e-13
9.44963e-13
6.1203e-13
1.08507e-12
3.98753e-12
3.55424e-12
7.05874e-12
7.44988e-12
6.61749e-12
5.1947e-12
6.09617e-12
4.25591e-12
2.65427e-12
3.72368e-12
6.769e-12
7.97223e-12
9.46917e-12
7.32556e-12
9.24931e-12
1.01894e-11
7.70559e-12
7.99984e-12
1.0632e-11
1.09439e-11
1.09297e-11
1.14649e-11
1.44281e-11
1.47266e-11
1.59727e-11
1.54519e-11
1.5281e-11
1.60051e-11
1.50448e-11
1.36909e-11
1.70423e-11
1.66864e-11
1.77999e-11
1.46142e-11
1.81656e-11
1.5424e-11
1.50777e-11
1.20662e-11
1.18437e-11
9.65247e-12
1.16494e-11
1.16289e-11
1.12912e-11
1.274e-11
1.40739e-11
1.4976e-11
1.48621e-11
1.74252e-11
1.62696e-11
1.32221e-11
1.25837e-11
1.54197e-11
1.29868e-11
1.39506e-11
1.26831e-11
1.58402e-11
1.51848e-11
1.59187e-11
1.53713e-11
1.9396e-11
1.83087e-11
1.9631e-11
1.84828e-11
1.80703e-11
1.64266e-11
1.5611e-11
1.33503e-11
1.32445e-11
1.61083e-11
1.69554e-11
1.67773e-11
1.6908e-11
1.79239e-11
1.51669e-11
1.68612e-11
1.4523e-11
1.76548e-11
1.61773e-11
1.8864e-11
1.70315e-11
2.13691e-11
1.94931e-11
2.27816e-11
2.11205e-11
)
;

boundaryField
{
    sides
    {
        type            calculated;
        value           nonuniform List<scalar> 2(2.11205e-11 1.44171e-11);
    }
    empty
    {
        type            empty;
    }
}


// ************************************************************************* //
