/*--------------------------------*- C++ -*----------------------------------*\
| =========                 |                                                 |
| \\      /  F ield         | OpenFOAM: The Open Source CFD Toolbox           |
|  \\    /   O peration     | Version:  4.1                                   |
|   \\  /    A nd           | Web:      www.OpenFOAM.org                      |
|    \\/     M anipulation  |                                                 |
\*---------------------------------------------------------------------------*/
FoamFile
{
    version     2.0;
    format      ascii;
    class       volScalarField;
    location    "0.0034";
    object      p;
}
// * * * * * * * * * * * * * * * * * * * * * * * * * * * * * * * * * * * * * //

dimensions      [1 -1 -2 0 0 0 0];

internalField   nonuniform List<scalar> 
1000
(
100000
100000
100000
100000
100000
100000
100000
100000
100000
100000
100000
100000
100000
100000
100000
100000
100000
100000
100000
100000
100000
100000
100000
100000
100000
100000
100000
100000
100000
100000
100000
100000
100000
100000
100000
100000
100000
100000
100000
100000
100000
100000
100000
100000
100000
100000
100000
100000
100000
100000
100000
100000
100000
100000
100000
100000
100000
100000
100000
100000
100000
100000
100000
100000
100000
100000
100000
100000
100000
100000
100000
100000
100000
100000
100000
100000
100000
100000
100000
100000
100000
100000
100000
100000
100000
100000
100000
100000
100000
100000
100000
100000
100000
100000
100000
100000
100000
100000
100000
100000
100000
100000
100000
100000
100000
100000
100000
100000
100000
100000
100000
100000
100000
100000
100000
100000
100000
100000
100000
100000
100000
100000
100000
100000
100000
100000
100000
100000
100000
100000
100000
100000
100000
100000
100000
100000
100000
100000
100000
100000
100000
100000
100000
100000
100000
100000
100000
100000
100000
100000
100000
100000
100000
100000
100000
100000
100000
100000
100000
100000
100000
100000
100000
100000
100000
100000
100000
100000
100000
100000
100000
100000
100000
100000
100000
100000
100000
100000
100000
100000
100000
100000
100000
100000
100000
100000
100000
100000
100000
100000
100000
100000
100000
100000
100000
100000
100000
100000
100000
100000
100000
100000
100000
100000
100000
100000
100000
100000
100000
100000
100000
100000
100000
100000
100000
100000
100000
100000
100000
100000
100000
100000
100000
100000
100000
100000
100000
100000
100000
100000
100000
100000
100000
100000
100000
100000
100000
100000
100000
100000
100000
100000
100000
100000
100000
100000
100000
100000
100000
100000
100000
100000
100000
100000
100000
100000
100000
100000
100000
100000
100000
100000
100000
100000
100000
100000
100000
100000
100000
100000
100000
100000
100000
100000
100000
100000
100000
100000
100000
100000
100000
100000
100000
100000
100000
100000
100000
100000
100000
100000
100000
100000
100000
100000
100000
100000
100000
100000
100000
100000
100000
100000
100000
100000
100000
100000
100000
100000
100000
100000
100000
100000
100000
100000
100000
100000
100000
100000
100000
100000
100000
100000
100000
100000
100000
100000
100000
100000
100000
100000
100000
100000
100000
100000
100000
100000
100000
100000
99999.9
99999.9
99999.8
99999.6
99999.2
99998.6
99997.4
99995.5
99992.4
99987.1
99978.6
99965
99943.8
99911.4
99863.1
99792.4
99691.8
99552.4
99364.7
99120.3
98813.9
98447.8
98030
97567.1
97064.1
96525.7
95957
95362.8
94747.4
94115
93468.9
92812.1
92146.9
91475.5
90799.3
90119.8
89438.2
88755.3
88072
87388.8
86706.4
86025.2
85345.5
84667.9
83992.4
83319.5
82649.3
81982.1
81317.9
80657
79999.5
79345.5
78695.2
78048.5
77405.7
76766.8
76131.9
75501.1
74874.3
74251.8
73633.4
73019.4
72409.7
71804.3
71203.4
70607
70015.1
69427.8
68845.1
68267.1
67693.7
67125.1
66561.3
66002.4
65448.4
64899.3
64355.2
63816.3
63282.4
62753.8
62230.5
61712.6
61200.1
60693.2
60192
59696.5
59207
58723.5
58246.2
57775.2
57310.8
56853.1
56402.4
55958.8
55522.6
55094.2
54673.8
54261.7
53858.5
53464.2
53079.8
52705
52341.4
51988.2
51647.5
51318.7
51003.3
50701.5
50414.2
50142.6
49886.7
49648
49426.8
49223.6
49039.7
48874.3
48728.3
48602
48493.8
48404.1
48331.7
48274
48231.3
48200.8
48179.3
48167
48160.5
48158.3
48158.4
48158.6
48159.1
48160.2
48162.7
48167.4
48173
48178.5
48183.3
48187.2
48189.9
48191.7
48192.8
48193.7
48194.1
48194.5
48194.7
48194.9
48195
48195.1
48195.3
48195.4
48195.6
48195.8
48196
48196.1
48196.2
48196.3
48196.3
48196.3
48196.4
48196.5
48196.6
48196.7
48196.9
48197
48197.1
48197.2
48197.3
48197.4
48197.5
48197.5
48197.6
48197.7
48197.8
48197.8
48197.9
48198
48198.1
48198.1
48198.2
48198.3
48198.5
48198.3
48197.8
48198.1
48198.5
48198.6
48198.6
48198.6
48198.7
48198.7
48198.8
48198.8
48198.9
48199
48199.1
48199.3
48199.6
48199.7
48198.9
48198.6
48198.7
48199.1
48199.2
48199.2
48199.1
48199.2
48199.2
48199.1
48200.1
48200.5
48200.5
48198.8
48198.6
48200.2
48200.5
48199.9
48199.6
48199.8
48200.7
48200.7
48200.8
48201.1
48202
48201.6
48200.3
48203.3
48213.4
48183.6
48196.1
48202.7
48197.6
48192.6
48202.6
48209.6
48201.4
48190.3
48195.5
48209.4
48208.2
48192
48188.8
48204.7
48212.7
48200.2
48187.7
48195
48211.2
48209.5
48191.1
48188.5
48205.1
48212.1
48198.5
48187.1
48196.5
48211.4
48207.6
48189.1
48188.3
48206.9
48212.4
48196.3
48186
48197.1
48211.5
48206.2
48187.8
48188.1
48207
48211.5
48194
48184.8
48197.5
48211
48203.7
48185.7
48187
48206.6
48209.9
48190.7
48182.4
48196.6
48209.4
48199.2
48181.6
48184.7
48204.9
48206.5
48184.7
48177.4
48192.5
48204.8
48192.8
48175
48178
48197.4
48197.7
48174.8
48168.1
48182.7
48193.8
48177.7
48160.6
48163.7
48181.7
48178.8
48153.2
48147.8
48160.6
48169.5
48148.5
48132.9
48134
48147.6
48140.8
48112.9
48107.1
48111.5
48118.3
48090.7
48072.3
48068.6
48074.9
48065.2
48023.2
48011.2
48010
48016
47962.6
47925.9
47916.2
47924.1
47896.2
47805.5
47777.9
47770.1
47775.8
47640.8
47545.9
47509.1
47495.3
47405.8
46924.7
46269.9
44637.3
38419.2
29027.3
26104
25270.9
25064.6
25015.3
25003.6
25000.9
25000.2
25000
25000
25000
25000
25000
25000
25000
25000
25000
25000
25000
25000
25000
25000
25000
25000
25000
25000
25000
25000
25000
25000
25000
25000
25000
25000
25000
25000
25000
25000
25000
25000
25000
25000
25000
25000
25000
25000
25000
25000
25000
25000
25000
25000
25000
25000
25000
25000
25000
25000
25000
25000
25000
25000
25000
25000
25000
25000
25000
25000
25000
25000
25000
25000
25000
25000
25000
25000
25000
25000
25000
25000
25000
25000
25000
25000
25000
25000
25000
25000
25000
25000
25000
25000
25000
25000
25000
25000
25000
25000
25000
25000
25000
25000
25000
25000
25000
25000
25000
25000
25000
25000
25000
25000
25000
25000
25000
25000
25000
25000
25000
25000
25000
25000
25000
25000
25000
25000
25000
25000
25000
25000
25000
25000
25000
25000
25000
25000
25000
25000
25000
25000
25000
25000
25000
25000
25000
25000
25000
25000
25000
25000
25000
25000
25000
25000
25000
25000
25000
25000
25000
25000
25000
25000
25000
25000
25000
25000
25000
25000
25000
25000
25000
25000
25000
25000
25000
25000
25000
25000
25000
25000
25000
25000
25000
25000
25000
25000
25000
25000
25000
25000
25000
25000
25000
25000
25000
25000
25000
25000
25000
25000
25000
25000
25000
25000
25000
25000
25000
25000
25000
25000
25000
25000
25000
25000
25000
25000
25000
25000
25000
25000
25000
25000
25000
25000
25000
25000
25000
25000
25000
25000
25000
25000
25000
25000
25000
25000
25000
25000
25000
25000
25000
25000
25000
25000
25000
25000
25000
25000
25000
25000
25000
25000
25000
25000
25000
25000
25000
25000
25000
25000
25000
25000
25000
25000
25000
25000
25000
25000
25000
25000
25000
25000
25000
25000
25000
25000
25000
25000
25000
25000
25000
25000
25000
25000
25000
25000
25000
25000
25000
25000
25000
25000
25000
25000
25000
25000
25000
25000
25000
25000
25000
25000
25000
25000
25000
25000
25000
25000
25000
25000
25000
25000
25000
25000
25000
25000
)
;

boundaryField
{
    sides
    {
        type            zeroGradient;
    }
    empty
    {
        type            empty;
    }
}


// ************************************************************************* //
