/*--------------------------------*- C++ -*----------------------------------*\
| =========                 |                                                 |
| \\      /  F ield         | OpenFOAM: The Open Source CFD Toolbox           |
|  \\    /   O peration     | Version:  4.1                                   |
|   \\  /    A nd           | Web:      www.OpenFOAM.org                      |
|    \\/     M anipulation  |                                                 |
\*---------------------------------------------------------------------------*/
FoamFile
{
    version     2.0;
    format      ascii;
    class       surfaceScalarField;
    location    "0.0034";
    object      phi;
}
// * * * * * * * * * * * * * * * * * * * * * * * * * * * * * * * * * * * * * //

dimensions      [1 0 -1 0 0 0 0];

internalField   nonuniform List<scalar> 
999
(
-5.14859e-11
-5.87121e-11
-5.65095e-11
-4.9873e-11
-5.14433e-11
-5.77245e-11
-6.51497e-11
-6.37215e-11
-6.71818e-11
-6.29328e-11
-6.12701e-11
-6.53628e-11
-6.67555e-11
-6.31672e-11
-5.56781e-11
-5.20686e-11
-5.1628e-11
-4.90417e-11
-5.41789e-11
-5.46478e-11
-5.27862e-11
-5.34897e-11
-5.23954e-11
-4.62848e-11
-4.87361e-11
-4.5894e-11
-4.14602e-11
-4.46221e-11
-3.93854e-11
-3.69198e-11
-4.17586e-11
-4.81961e-11
-4.57021e-11
-5.15286e-11
-5.06049e-11
-5.07612e-11
-4.99014e-11
-4.44871e-11
-4.58442e-11
-3.9698e-11
-3.54916e-11
-2.89901e-11
-2.61622e-11
-2.90328e-11
-2.79385e-11
-2.68159e-11
-2.78249e-11
-2.57288e-11
-1.68754e-11
-1.31237e-11
-1.01394e-11
-8.95284e-12
-3.65219e-12
3.85825e-12
4.90274e-13
-8.39862e-12
-8.28493e-12
-5.48539e-12
-1.3884e-11
-1.92486e-11
-1.53051e-11
-2.31495e-11
-2.467e-11
-1.85594e-11
-1.32303e-11
-1.23919e-11
-7.75202e-12
-5.55644e-12
-6.89937e-12
-8.12861e-12
-1.93268e-12
-3.43192e-12
1.03739e-12
7.21911e-12
1.42109e-13
-5.79803e-12
-2.41585e-13
4.76064e-13
4.68248e-12
8.13571e-12
5.17275e-12
5.32907e-13
8.81073e-12
7.51754e-12
1.71241e-11
1.58806e-11
2.51319e-11
2.6759e-11
2.57216e-11
2.22755e-11
2.18989e-11
2.05773e-11
1.82823e-11
1.83249e-11
1.36922e-11
8.54783e-12
1.12976e-11
1.25056e-11
1.90354e-11
2.51035e-11
2.05844e-11
1.9611e-11
1.92131e-11
2.63043e-11
3.38218e-11
3.11502e-11
3.67706e-11
4.03162e-11
3.99467e-11
3.85612e-11
3.87743e-11
2.99138e-11
2.57359e-11
1.75717e-11
1.5234e-11
9.60654e-12
8.20677e-12
1.62004e-11
2.24247e-11
2.43645e-11
2.48335e-11
2.88196e-11
2.72067e-11
3.19389e-11
2.64038e-11
2.22471e-11
2.20837e-11
1.55538e-11
1.37419e-11
1.52127e-11
1.24771e-11
1.59304e-11
2.22684e-11
2.68727e-11
2.73701e-11
2.32845e-11
2.01581e-11
2.2176e-11
2.16573e-11
1.40972e-11
1.31806e-11
8.29203e-12
9.25127e-12
9.73444e-12
1.00542e-11
1.01537e-11
1.18732e-11
1.82396e-11
2.22471e-11
1.96749e-11
1.25979e-11
1.50564e-11
1.49569e-11
1.34008e-11
1.86802e-11
2.16005e-11
2.16218e-11
1.96749e-11
1.68328e-11
2.386e-11
2.59277e-11
2.46771e-11
2.59632e-11
2.27871e-11
1.62856e-11
2.44498e-11
2.49045e-11
2.75548e-11
2.85212e-11
2.48122e-11
2.39027e-11
2.27658e-11
2.35829e-11
3.20952e-11
3.14841e-11
3.41274e-11
3.62803e-11
3.58185e-11
3.16689e-11
3.88596e-11
3.04894e-11
2.50822e-11
2.52953e-11
2.5274e-11
2.40874e-11
2.55653e-11
2.31637e-11
1.91633e-11
1.63638e-11
1.76072e-11
1.139e-11
1.92841e-11
2.2105e-11
1.28466e-11
1.08287e-11
1.06013e-11
7.06279e-12
6.25278e-12
9.39337e-12
5.30775e-12
3.60956e-12
2.6219e-12
7.96518e-12
1.13118e-11
1.67546e-11
2.26947e-11
2.39098e-11
2.79101e-11
2.89901e-11
3.44116e-11
3.52216e-11
2.80806e-11
2.79385e-11
2.42082e-11
2.64109e-11
3.09655e-11
3.12781e-11
3.18821e-11
3.22515e-11
3.26281e-11
3.82769e-11
3.23013e-11
3.51363e-11
2.91109e-11
2.73062e-11
2.78391e-11
2.07621e-11
2.13021e-11
2.07976e-11
2.27161e-11
1.99876e-11
2.14584e-11
2.95941e-11
2.5004e-11
2.00657e-11
1.39977e-11
1.18732e-11
1.36922e-11
8.12861e-12
8.41283e-12
1.02816e-11
1.29532e-11
4.51905e-12
2.67164e-12
1.4019e-11
1.48219e-11
1.65556e-11
1.44453e-11
1.94404e-11
2.03997e-11
1.98526e-11
1.85594e-11
1.44595e-11
5.16565e-12
5.34328e-12
1.47082e-12
-6.37357e-12
-6.48015e-12
-5.76961e-12
-2.70717e-12
4.448e-12
1.08926e-11
1.61862e-11
1.08571e-11
1.4488e-11
1.00471e-11
6.43041e-12
1.20295e-11
1.98526e-11
2.06128e-11
2.47482e-11
3.01767e-11
2.19487e-11
1.47153e-11
1.76641e-11
1.53477e-11
1.47011e-11
8.05755e-12
5.32907e-13
8.34888e-12
7.50333e-12
9.17311e-12
1.60156e-11
1.7053e-11
1.89289e-11
2.46558e-11
3.14699e-11
2.56577e-11
2.5004e-11
2.63256e-11
2.6013e-11
2.51887e-11
1.94547e-11
2.69367e-11
3.21592e-11
2.62688e-11
2.28582e-11
2.67946e-11
2.30642e-11
2.30003e-11
1.87939e-11
1.88791e-11
1.65556e-11
1.76996e-11
1.89075e-11
1.32587e-11
1.83249e-11
2.42082e-11
2.14087e-11
2.4329e-11
2.65956e-11
2.42366e-11
1.91349e-11
2.18137e-11
2.15437e-11
3.0532e-11
6.19949e-11
1.40069e-10
3.20448e-10
7.44137e-10
1.72069e-09
3.92462e-09
8.85201e-09
1.97643e-08
4.36865e-08
9.5611e-08
2.07185e-07
4.44481e-07
9.43933e-07
1.98407e-06
4.12694e-06
8.49334e-06
1.72911e-05
3.48153e-05
6.93152e-05
0.000136425
0.000265378
0.000510065
0.000968403
0.00181564
0.00336055
0.00613834
0.011061
0.0196549
0.0344267
0.0594115
0.100967
0.168881
0.277856
0.449377
0.713916
1.11324
1.70245
2.55097
3.74158
5.36601
7.51534
10.2621
13.6245
17.5344
21.9082
26.6877
31.8225
37.2609
42.9515
48.8459
54.9004
61.0767
67.3423
73.6702
80.0378
86.4267
92.8216
99.2103
105.582
111.93
118.245
124.522
130.757
136.945
143.082
149.167
155.195
161.166
167.077
172.927
178.714
184.437
190.096
195.689
201.215
206.675
212.068
217.392
222.649
227.836
232.956
238.006
242.987
247.899
252.742
257.515
262.219
266.854
271.42
275.916
280.343
284.701
288.989
293.209
297.359
301.441
305.454
309.398
313.273
317.079
320.817
324.486
328.086
331.618
335.081
338.475
341.8
345.056
348.242
351.359
354.407
357.384
360.291
363.126
365.891
368.583
371.203
373.747
376.221
378.612
380.941
383.167
385.351
387.405
389.43
391.329
393.149
394.928
396.512
398.143
399.552
400.92
402.24
403.322
404.444
405.409
406.199
407.021
407.662
408.162
408.685
409.056
409.302
409.562
409.735
409.815
409.881
409.937
409.95
409.934
409.927
409.92
409.911
409.895
409.885
409.858
409.83
409.797
409.779
409.764
409.746
409.735
409.73
409.725
409.718
409.715
409.712
409.707
409.701
409.696
409.692
409.686
409.681
409.677
409.674
409.668
409.663
409.658
409.652
409.645
409.64
409.636
409.63
409.624
409.62
409.615
409.608
409.603
409.596
409.588
409.582
409.576
409.567
409.559
409.553
409.546
409.536
409.527
409.521
409.514
409.504
409.494
409.486
409.458
409.442
409.446
409.436
409.429
409.42
409.406
409.387
409.371
409.361
409.354
409.345
409.326
409.304
409.287
409.279
409.257
409.223
409.196
409.169
409.134
409.106
409.093
409.085
409.06
409
408.955
408.928
408.906
408.842
408.793
408.778
408.716
408.562
408.393
408.285
408.257
408.262
408.292
408.467
408.668
408.764
408.785
408.212
402.682
381.28
355.597
333.916
316.237
302.487
292.694
285.968
281.189
277.728
275.733
274.896
274.297
273.602
273.186
273.264
273.551
273.471
273.043
273.011
273.457
273.561
273.219
273.011
273.223
273.542
273.466
273.054
273.04
273.496
273.588
273.169
272.999
273.284
273.575
273.447
273.044
273.057
273.516
273.591
273.141
272.998
273.317
273.584
273.422
273.034
273.064
273.524
273.592
273.106
272.981
273.349
273.592
273.374
273.003
273.073
273.533
273.571
273.046
272.94
273.377
273.59
273.297
272.951
273.038
273.498
273.517
272.982
272.89
273.311
273.523
273.171
272.853
272.962
273.407
273.387
272.836
272.764
273.183
273.385
272.903
272.664
272.773
273.184
273.076
272.545
272.497
272.814
273.027
272.436
272.274
272.324
272.666
272.539
271.938
271.905
272.035
272.315
271.494
271.248
271.315
271.678
271.402
270.31
270.244
270.475
270.97
269.078
268.555
268.67
269.382
268.805
266.141
265.89
266.265
267.214
263.288
254.514
244.518
218.428
82.7988
25.7395
6.50777
1.56423
0.371152
0.0877467
0.0207214
0.00489114
0.00115432
0.000272407
6.42834e-05
1.51693e-05
3.57945e-06
8.44595e-07
1.99279e-07
4.70177e-08
1.10931e-08
2.61733e-09
6.17462e-10
1.44343e-10
3.13936e-11
3.93818e-12
-5.38236e-12
-7.84972e-12
-7.91367e-12
-6.25633e-12
-6.05027e-12
-4.37517e-12
-2.39808e-12
-1.56852e-12
-7.56728e-13
-1.82254e-12
-1.48681e-12
-8.59757e-13
-3.04468e-12
-5.48894e-12
-5.70921e-12
-3.85825e-12
-2.71783e-12
-1.83498e-12
-2.55085e-12
-4.18865e-12
-5.81579e-12
-6.94556e-12
-6.1906e-12
-4.56346e-12
-2.80309e-12
-9.37916e-13
-1.55786e-12
-3.20455e-12
-3.81206e-12
-4.09628e-12
-3.89733e-12
-4.57945e-12
-4.67004e-12
-3.55982e-12
-2.58105e-12
-1.28431e-12
-8.88178e-15
-7.35412e-13
-4.22773e-13
7.21201e-13
4.61853e-13
-1.35181e-12
-2.33236e-12
-3.6362e-12
-5.02887e-12
-6.27765e-12
-4.55103e-12
-4.1549e-12
-1.69109e-12
-1.16707e-12
-1.83142e-12
-2.21867e-12
-1.56319e-12
-1.41398e-12
-2.47979e-12
-3.14415e-12
-3.55449e-12
-3.13527e-12
-1.45484e-12
-1.53122e-12
-1.09601e-12
3.97904e-13
-9.14824e-13
-3.38218e-12
-1.29496e-12
-1.80655e-12
-2.95231e-12
-3.43547e-12
-2.30926e-12
-3.25961e-12
-1.61826e-12
-2.82441e-13
-8.36664e-13
-2.9079e-12
-2.98073e-12
-2.78533e-12
-1.32694e-12
1.24345e-13
5.08038e-13
3.32179e-13
-6.51923e-13
-2.64855e-12
-4.73044e-12
-4.08029e-12
-1.82609e-12
-1.00009e-12
-1.00009e-12
-2.08367e-12
-2.70362e-12
-3.85825e-12
-3.93641e-12
-2.29861e-12
-7.21201e-13
9.80549e-13
1.68932e-12
3.61666e-12
3.9666e-12
2.04103e-12
1.62714e-12
1.30917e-12
3.32001e-12
1.83853e-12
2.27196e-12
1.87228e-12
6.0929e-13
1.45484e-12
1.26299e-12
1.48859e-12
-5.64881e-13
-1.12621e-12
-1.66978e-12
-3.64864e-12
-4.74287e-12
-4.82814e-12
-3.68061e-12
-5.47473e-12
-7.48734e-12
-8.83382e-12
-8.65619e-12
-8.56915e-12
-8.92797e-12
-7.89413e-12
-6.06803e-12
-4.51728e-12
-3.201e-12
-2.5846e-12
-2.65743e-12
-9.43245e-13
1.12266e-12
1.83142e-12
9.13047e-13
2.51887e-12
4.03055e-12
3.85647e-12
4.35207e-12
5.50848e-12
5.14078e-12
5.71987e-12
7.76801e-12
9.54792e-12
9.34719e-12
1.03206e-11
9.90852e-12
8.06821e-12
7.28662e-12
6.08935e-12
7.8284e-12
6.29363e-12
5.8229e-12
5.3948e-12
4.44089e-12
4.05365e-12
4.16556e-12
3.32712e-12
3.24185e-12
2.82441e-12
1.40687e-12
1.11022e-12
2.14762e-12
2.37854e-12
3.77476e-12
4.56524e-12
6.31672e-12
6.51568e-12
4.37872e-12
2.79776e-12
3.11751e-12
4.22418e-12
3.59357e-12
2.78e-12
1.36069e-12
8.13571e-13
9.59233e-13
2.47624e-12
2.26485e-12
2.44071e-12
3.04468e-12
3.12461e-12
2.77645e-12
2.39808e-12
2.69829e-12
4.10871e-12
5.34506e-12
4.93472e-12
5.13722e-12
3.18501e-12
1.11555e-12
5.27578e-13
2.18492e-12
8.68638e-13
9.32587e-13
2.58815e-12
1.98241e-12
1.98952e-13
-4.03233e-13
3.96128e-13
-1.20792e-13
1.6751e-12
2.69118e-12
1.29319e-12
-3.73035e-13
6.57252e-13
7.4607e-13
-9.96536e-13
-1.94156e-12
-2.20979e-12
-9.25482e-13
4.79616e-14
7.58504e-13
6.46594e-13
2.224e-12
3.32534e-12
4.21529e-12
6.89049e-12
6.17284e-12
4.80505e-12
5.05729e-12
4.65938e-12
3.20988e-12
2.48157e-12
5.00933e-12
6.17106e-12
7.77511e-12
7.50866e-12
6.80167e-12
8.8658e-12
7.57439e-12
6.74838e-12
8.19433e-12
9.53726e-12
9.54792e-12
9.71312e-12
1.09015e-11
1.30367e-11
1.28946e-11
1.4154e-11
1.29319e-11
1.38929e-11
1.39568e-11
1.20064e-11
1.33173e-11
1.48255e-11
1.47153e-11
1.44507e-11
1.39995e-11
1.49889e-11
1.28573e-11
1.20224e-11
1.04272e-11
9.31699e-12
9.13225e-12
1.03189e-11
9.7522e-12
1.02567e-11
1.15676e-11
1.25002e-11
1.3193e-11
1.41362e-11
1.52305e-11
1.25873e-11
1.08056e-11
1.24611e-11
1.2351e-11
1.20792e-11
1.1207e-11
1.23723e-11
1.35643e-11
1.33547e-11
1.33404e-11
1.52287e-11
1.65059e-11
1.62093e-11
1.70957e-11
1.55342e-11
1.48734e-11
1.43121e-11
1.22515e-11
1.13349e-11
1.27347e-11
1.4559e-11
1.44063e-11
1.46283e-11
1.52305e-11
1.4456e-11
1.39213e-11
1.34985e-11
1.39515e-11
1.48255e-11
1.52731e-11
1.53904e-11
1.67724e-11
1.80584e-11
1.79572e-11
1.93392e-11
)
;

boundaryField
{
    sides
    {
        type            calculated;
        value           nonuniform List<scalar> 2(1.83413e-11 5.0112e-11);
    }
    empty
    {
        type            empty;
        value           nonuniform 0();
    }
}


// ************************************************************************* //
