/*--------------------------------*- C++ -*----------------------------------*\
| =========                 |                                                 |
| \\      /  F ield         | OpenFOAM: The Open Source CFD Toolbox           |
|  \\    /   O peration     | Version:  4.1                                   |
|   \\  /    A nd           | Web:      www.OpenFOAM.org                      |
|    \\/     M anipulation  |                                                 |
\*---------------------------------------------------------------------------*/
FoamFile
{
    version     2.0;
    format      ascii;
    class       volScalarField;
    location    "0.0034";
    object      T;
}
// * * * * * * * * * * * * * * * * * * * * * * * * * * * * * * * * * * * * * //

dimensions      [0 0 0 1 0 0 0];

internalField   nonuniform List<scalar> 
1000
(
400
400
400
400
400
400
400
400
400
400
400
400
400
400
400
400
400
400
400
400
400
400
400
400
400
400
400
400
400
400
400
400
400
400
400
400
400
400
400
400
400
400
400
400
400
400
400
400
400
400
400
400
400
400
400
400
400
400
400
400
400
400
400
400
400
400
400
400
400
400
400
400
400
400
400
400
400
400
400
400
400
400
400
400
400
400
400
400
400
400
400
400
400
400
400
400
400
400
400
400
400
400
400
400
400
400
400
400
400
400
400
400
400
400
400
400
400
400
400
400
400
400
400
400
400
400
400
400
400
400
400
400
400
400
400
400
400
400
400
400
400
400
400
400
400
400
400
400
400
400
400
400
400
400
400
400
400
400
400
400
400
400
400
400
400
400
400
400
400
400
400
400
400
400
400
400
400
400
400
400
400
400
400
400
400
400
400
400
400
400
400
400
400
400
400
400
400
400
400
400
400
400
400
400
400
400
400
400
400
400
400
400
400
400
400
400
400
400
400
400
400
400
400
400
400
400
400
400
400
400
400
400
400
400
400
400
400
400
400
400
400
400
400
400
400
400
400
400
400
400
400
400
400
400
400
400
400
400
400
400
400
400
400
400
400
400
400
400
400
400
400
400
400
400
400
400
400
400
400
400
400
400
400
400
400
400
400
400
400
400
400
400
400
400
400
400
400
400
400
400
400
400
400
400
400
400
400
400
400
400
400
400
400
400
400
400
400
400
400
400
400
400
400
400
400
400
400
400
400
400
400
400
400
400
400
400
400
400
400
400
400
399.999
399.999
399.998
399.997
399.995
399.991
399.985
399.975
399.96
399.936
399.899
399.843
399.762
399.647
399.487
399.271
398.99
398.636
398.213
397.729
397.19
396.603
395.973
395.304
394.602
393.872
393.118
392.344
391.553
390.748
389.931
389.104
388.269
387.427
386.578
385.724
384.866
384.004
383.138
382.27
381.399
380.526
379.652
378.776
377.898
377.02
376.141
375.261
374.381
373.5
372.62
371.739
370.859
369.979
369.099
368.22
367.342
366.464
365.587
364.711
363.836
362.963
362.09
361.219
360.35
359.482
358.616
357.751
356.889
356.029
355.171
354.316
353.463
352.613
351.765
350.921
350.08
349.242
348.408
347.578
346.752
345.931
345.114
344.302
343.496
342.695
341.9
341.112
340.331
339.558
338.792
338.036
337.286
336.553
335.817
335.122
334.384
333.758
332.983
332.474
331.64
331.239
330.43
329.995
329.401
328.785
328.454
327.801
327.444
327.079
326.556
326.345
326.01
325.65
325.525
325.292
325.067
325.006
324.893
324.77
324.746
324.726
324.68
324.671
324.679
324.684
324.682
324.682
324.688
324.698
324.71
324.718
324.733
324.747
324.751
324.76
324.768
324.77
324.773
324.778
324.782
324.783
324.785
324.79
324.793
324.794
324.797
324.802
324.805
324.807
324.811
324.815
324.818
324.82
324.825
324.829
324.831
324.835
324.841
324.845
324.847
324.853
324.857
324.861
324.867
324.871
324.875
324.881
324.887
324.892
324.895
324.902
324.91
324.915
324.919
324.926
324.935
324.943
324.947
324.952
324.962
324.974
324.981
324.985
324.993
325.006
325.021
325.031
325.037
325.042
325.054
325.074
325.094
325.108
325.115
325.119
325.131
325.158
325.19
325.215
325.229
325.236
325.246
325.271
325.32
325.37
325.406
325.424
325.431
325.445
325.491
325.605
325.727
325.821
325.876
325.896
325.888
325.807
325.622
325.494
325.451
325.631
327.693
337.881
361.489
386.866
410.591
431.209
447.992
460.89
470.236
476.627
480.791
483.43
485.044
485.941
486.379
486.618
486.786
486.867
486.856
486.815
486.824
486.867
486.859
486.793
486.775
486.818
486.839
486.799
486.756
486.775
486.822
486.814
486.752
486.742
486.795
486.813
486.766
486.728
486.753
486.799
486.787
486.726
486.719
486.774
486.789
486.737
486.703
486.732
486.776
486.76
486.699
486.696
486.755
486.769
486.711
486.679
486.714
486.755
486.73
486.669
486.671
486.734
486.743
486.678
486.651
486.689
486.73
486.7
486.638
486.64
486.699
486.707
486.637
486.612
486.651
486.688
486.646
486.586
486.589
486.646
486.647
486.566
486.546
486.58
486.611
486.551
486.496
486.495
486.538
486.529
486.439
486.421
486.429
486.452
486.375
486.313
486.297
486.313
486.307
486.178
486.132
486.126
486.157
486
485.869
485.855
485.88
485.809
485.518
485.473
485.431
485.421
485.07
484.788
484.641
484.582
484.446
482.886
480.737
476.473
458.634
418.302
405.058
401.241
400.296
400.07
400.017
400.004
400.001
400
400
400
400
400
400
400
400
400
400
400
400
400
400
400
400
400
400
400
400
400
400
400
400
400
400
400
400
400
400
400
400
400
400
400
400
400
400
400
400
400
400
400
400
400
400
400
400
400
400
400
400
400
400
400
400
400
400
400
400
400
400
400
400
400
400
400
400
400
400
400
400
400
400
400
400
400
400
400
400
400
400
400
400
400
400
400
400
400
400
400
400
400
400
400
400
400
400
400
400
400
400
400
400
400
400
400
400
400
400
400
400
400
400
400
400
400
400
400
400
400
400
400
400
400
400
400
400
400
400
400
400
400
400
400
400
400
400
400
400
400
400
400
400
400
400
400
400
400
400
400
400
400
400
400
400
400
400
400
400
400
400
400
400
400
400
400
400
400
400
400
400
400
400
400
400
400
400
400
400
400
400
400
400
400
400
400
400
400
400
400
400
400
400
400
400
400
400
400
400
400
400
400
400
400
400
400
400
400
400
400
400
400
400
400
400
400
400
400
400
400
400
400
400
400
400
400
400
400
400
400
400
400
400
400
400
400
400
400
400
400
400
400
400
400
400
400
400
400
400
400
400
400
400
400
400
400
400
400
400
400
400
400
400
400
400
400
400
400
400
400
400
400
400
400
400
400
400
400
400
400
400
400
400
400
400
400
400
400
400
400
400
400
400
400
400
400
400
400
400
400
400
400
400
400
400
400
400
)
;

boundaryField
{
    sides
    {
        type            zeroGradient;
    }
    empty
    {
        type            empty;
    }
}


// ************************************************************************* //
