/*--------------------------------*- C++ -*----------------------------------*\
| =========                 |                                                 |
| \\      /  F ield         | OpenFOAM: The Open Source CFD Toolbox           |
|  \\    /   O peration     | Version:  4.1                                   |
|   \\  /    A nd           | Web:      www.OpenFOAM.org                      |
|    \\/     M anipulation  |                                                 |
\*---------------------------------------------------------------------------*/
FoamFile
{
    version     2.0;
    format      ascii;
    class       volVectorField;
    location    "0.0034";
    object      U;
}
// * * * * * * * * * * * * * * * * * * * * * * * * * * * * * * * * * * * * * //

dimensions      [0 1 -1 0 0 0 0];

internalField   nonuniform List<vector> 
1000
(
(-1.44171e-11 0 0)
(-1.57007e-11 0 0)
(-1.73364e-11 0 0)
(-1.53874e-11 0 0)
(-1.37967e-11 0 0)
(-1.56387e-11 0 0)
(-1.79574e-11 0 0)
(-1.91781e-11 0 0)
(-1.84321e-11 0 0)
(-1.92012e-11 0 0)
(-1.69457e-11 0 0)
(-1.9063e-11 0 0)
(-1.82729e-11 0 0)
(-1.96897e-11 0 0)
(-1.65168e-11 0 0)
(-1.61473e-11 0 0)
(-1.36212e-11 0 0)
(-1.6077e-11 0 0)
(-1.28023e-11 0 0)
(-1.74363e-11 0 0)
(-1.4475e-11 0 0)
(-1.56845e-11 0 0)
(-1.48783e-11 0 0)
(-1.58331e-11 0 0)
(-1.16322e-11 0 0)
(-1.52321e-11 0 0)
(-1.12881e-11 0 0)
(-1.28744e-11 0 0)
(-1.25167e-11 0 0)
(-9.9668e-12 0 0)
(-1.17052e-11 0 0)
(-1.27655e-11 0 0)
(-1.41391e-11 0 0)
(-1.26878e-11 0 0)
(-1.61585e-11 0 0)
(-1.35676e-11 0 0)
(-1.61226e-11 0 0)
(-1.14288e-11 0 0)
(-1.51714e-11 0 0)
(-1.07153e-11 0 0)
(-1.21448e-11 0 0)
(-8.20384e-12 0 0)
(-8.93111e-12 0 0)
(-5.86794e-12 0 0)
(-1.03426e-11 0 0)
(-6.58557e-12 0 0)
(-8.01934e-12 0 0)
(-8.1829e-12 0 0)
(-6.84759e-12 0 0)
(-3.36105e-12 0 0)
(-3.6449e-12 0 0)
(-2.27104e-12 0 0)
(-3.05807e-12 0 0)
(8.11385e-13 0 0)
(1.63857e-12 0 0)
(-1.43637e-12 0 0)
(-2.91886e-12 0 0)
(-2.13924e-12 0 0)
(-1.29578e-12 0 0)
(-6.64936e-12 0 0)
(-3.61466e-12 0 0)
(-5.93878e-12 0 0)
(-6.81688e-12 0 0)
(-7.52973e-12 0 0)
(-3.18728e-12 0 0)
(-5.02959e-12 0 0)
(-1.52827e-12 0 0)
(-2.79764e-12 0 0)
(-5.45809e-13 0 0)
(-3.80615e-12 0 0)
(-2.8343e-13 0 0)
(-1.08091e-12 0 0)
(-6.29694e-13 0 0)
(1.05737e-12 0 0)
(3.64833e-12 0 0)
(-3.6581e-12 0 0)
(8.49733e-13 0 0)
(-1.05236e-12 0 0)
(1.3734e-12 0 0)
(1.12058e-12 0 0)
(3.78664e-12 0 0)
(-1.21368e-12 0 0)
(1.71562e-12 0 0)
(2.38028e-12 0 0)
(2.82701e-12 0 0)
(5.96427e-12 0 0)
(4.05575e-12 0 0)
(9.10041e-12 0 0)
(7.30527e-12 0 0)
(7.72385e-12 0 0)
(5.10421e-12 0 0)
(7.43686e-12 0 0)
(4.07016e-12 0 0)
(6.91128e-12 0 0)
(2.91224e-12 0 0)
(4.88108e-12 0 0)
(7.04344e-13 0 0)
(4.96259e-12 0 0)
(2.78812e-12 0 0)
(7.71468e-12 0 0)
(6.76425e-12 0 0)
(5.05019e-12 0 0)
(6.59099e-12 0 0)
(4.96217e-12 0 0)
(9.78835e-12 0 0)
(9.03598e-12 0 0)
(9.45496e-12 0 0)
(1.15947e-11 0 0)
(1.17633e-11 0 0)
(1.10686e-11 0 0)
(1.16014e-11 0 0)
(9.6519e-12 0 0)
(8.09966e-12 0 0)
(6.3993e-12 0 0)
(4.17631e-12 0 0)
(3.91419e-12 0 0)
(2.01876e-12 0 0)
(2.86335e-12 0 0)
(6.15321e-12 0 0)
(6.79145e-12 0 0)
(6.67359e-12 0 0)
(8.52347e-12 0 0)
(7.07963e-12 0 0)
(9.24411e-12 0 0)
(8.51589e-12 0 0)
(7.11547e-12 0 0)
(6.01425e-12 0 0)
(6.47729e-12 0 0)
(2.16554e-12 0 0)
(6.24463e-12 0 0)
(2.82879e-12 0 0)
(3.74214e-12 0 0)
(5.9902e-12 0 0)
(6.42413e-12 0 0)
(8.95043e-12 0 0)
(7.22347e-12 0 0)
(6.0957e-12 0 0)
(5.55355e-12 0 0)
(7.1401e-12 0 0)
(4.83746e-12 0 0)
(3.54415e-12 0 0)
(3.7303e-12 0 0)
(1.4286e-12 0 0)
(3.73949e-12 0 0)
(1.96063e-12 0 0)
(3.2166e-12 0 0)
(3.22834e-12 0 0)
(3.36579e-12 0 0)
(6.65649e-12 0 0)
(6.11036e-12 0 0)
(5.42261e-12 0 0)
(1.97147e-12 0 0)
(6.65486e-12 0 0)
(1.77828e-12 0 0)
(5.95429e-12 0 0)
(5.13347e-12 0 0)
(6.62065e-12 0 0)
(6.07091e-12 0 0)
(4.80918e-12 0 0)
(5.56149e-12 0 0)
(7.6134e-12 0 0)
(7.25817e-12 0 0)
(7.06549e-12 0 0)
(8.16017e-12 0 0)
(4.40522e-12 0 0)
(5.61906e-12 0 0)
(7.68731e-12 0 0)
(7.28807e-12 0 0)
(8.15534e-12 0 0)
(7.53404e-12 0 0)
(7.20057e-12 0 0)
(6.68659e-12 0 0)
(6.45808e-12 0 0)
(7.92243e-12 0 0)
(9.19486e-12 0 0)
(9.99239e-12 0 0)
(8.92392e-12 0 0)
(1.21918e-11 0 0)
(7.7442e-12 0 0)
(1.16611e-11 0 0)
(9.3874e-12 0 0)
(8.22817e-12 0 0)
(6.4981e-12 0 0)
(8.23367e-12 0 0)
(6.29216e-12 0 0)
(7.95699e-12 0 0)
(6.30743e-12 0 0)
(6.74655e-12 0 0)
(4.3627e-12 0 0)
(5.40533e-12 0 0)
(4.12507e-12 0 0)
(2.93225e-12 0 0)
(8.85632e-12 0 0)
(2.71912e-12 0 0)
(5.06086e-12 0 0)
(1.78851e-12 0 0)
(4.07832e-12 0 0)
(-2.97313e-13 0 0)
(4.08993e-12 0 0)
(9.75076e-13 0 0)
(2.41545e-12 0 0)
(-6.2389e-13 0 0)
(2.35711e-12 0 0)
(2.02866e-12 0 0)
(4.3656e-12 0 0)
(5.58938e-12 0 0)
(6.73097e-12 0 0)
(7.8388e-12 0 0)
(7.54877e-12 0 0)
(9.5387e-12 0 0)
(1.07187e-11 0 0)
(8.92151e-12 0 0)
(7.84055e-12 0 0)
(7.94379e-12 0 0)
(5.45816e-12 0 0)
(1.03025e-11 0 0)
(7.04313e-12 0 0)
(1.10275e-11 0 0)
(7.84497e-12 0 0)
(1.04822e-11 0 0)
(8.46697e-12 0 0)
(1.27535e-11 0 0)
(6.94371e-12 0 0)
(1.23123e-11 0 0)
(4.74061e-12 0 0)
(1.09102e-11 0 0)
(4.76906e-12 0 0)
(7.58851e-12 0 0)
(4.79346e-12 0 0)
(7.09639e-12 0 0)
(6.29257e-12 0 0)
(4.40969e-12 0 0)
(8.98552e-12 0 0)
(6.78839e-12 0 0)
(8.63625e-12 0 0)
(2.37588e-12 0 0)
(5.27128e-12 0 0)
(2.04514e-12 0 0)
(5.36401e-12 0 0)
(-1.46182e-13 0 0)
(4.37865e-12 0 0)
(2.05169e-12 0 0)
(4.75564e-12 0 0)
(-1.77651e-12 0 0)
(3.43053e-12 0 0)
(4.01657e-12 0 0)
(5.07042e-12 0 0)
(3.80756e-12 0 0)
(5.02209e-12 0 0)
(5.68382e-12 0 0)
(6.5616e-12 0 0)
(4.56667e-12 0 0)
(6.34058e-12 0 0)
(1.43599e-12 0 0)
(1.89728e-12 0 0)
(1.54715e-12 0 0)
(-1.00151e-12 0 0)
(-2.04711e-12 0 0)
(-1.96562e-12 0 0)
(-1.92407e-12 0 0)
(7.77481e-13 0 0)
(1.35928e-12 0 0)
(5.55703e-12 0 0)
(2.92749e-12 0 0)
(3.97299e-12 0 0)
(3.77034e-12 0 0)
(1.77342e-12 0 0)
(2.40285e-12 0 0)
(4.7977e-12 0 0)
(5.56247e-12 0 0)
(6.52701e-12 0 0)
(8.7799e-12 0 0)
(7.47386e-12 0 0)
(5.60508e-12 0 0)
(3.4726e-12 0 0)
(6.15612e-12 0 0)
(2.60409e-12 0 0)
(5.64579e-12 0 0)
(-1.22158e-12 0 0)
(1.62313e-12 0 0)
(2.62408e-12 0 0)
(2.21702e-12 0 0)
(2.73205e-12 0 0)
(6.41465e-12 0 0)
(3.27422e-12 0 0)
(7.51639e-12 0 0)
(7.40129e-12 0 0)
(9.6802e-12 0 0)
(5.88506e-12 0 0)
(7.93912e-12 0 0)
(7.54612e-12 0 0)
(7.52431e-12 0 0)
(6.44356e-12 0 0)
(5.45313e-12 0 0)
(9.2073e-12 0 0)
(8.81518e-12 0 0)
(6.52189e-12 0 0)
(7.4221e-12 0 0)
(7.36304e-12 0 0)
(6.42972e-12 0 0)
(6.38854e-12 0 0)
(3.91751e-12 0 0)
(6.6915e-12 0 0)
(3.57192e-12 0 0)
(6.1896e-12 0 0)
(4.46065e-12 0 0)
(3.3288e-12 0 0)
(7.09521e-12 0 0)
(6.75161e-12 0 0)
(5.8324e-12 0 0)
(7.74928e-12 0 0)
(8.0337e-12 0 0)
(5.25806e-12 0 0)
(6.57976e-12 0 0)
(5.07691e-12 0 0)
(7.99915e-12 0 0)
(1.10605e-11 0 0)
(2.64118e-11 0 0)
(5.94158e-11 0 0)
(1.36394e-10 0 0)
(3.18534e-10 0 0)
(7.31239e-10 0 0)
(1.65998e-09 0 0)
(3.72777e-09 0 0)
(8.28858e-09 0 0)
(1.82428e-08 0 0)
(3.97584e-08 0 0)
(8.5787e-08 0 0)
(1.83246e-07 0 0)
(3.87444e-07 0 0)
(8.10721e-07 0 0)
(1.67862e-06 0 0)
(3.43848e-06 0 0)
(6.96673e-06 0 0)
(1.39588e-05 0 0)
(2.76517e-05 0 0)
(5.41443e-05 0 0)
(0.000104768 0 0)
(0.000200278 0 0)
(0.00037813 0 0)
(0.000704891 0 0)
(0.00129698 0 0)
(0.00235464 0 0)
(0.00421629 0 0)
(0.00744344 0 0)
(0.0129498 0 0)
(0.0221917 0 0)
(0.0374394 0 0)
(0.0621485 0 0)
(0.101444 0 0)
(0.162711 0 0)
(0.256264 0 0)
(0.395993 0 0)
(0.599846 0 0)
(0.889893 0 0)
(1.29161 0 0)
(1.83193 0 0)
(2.53514 0 0)
(3.41514 0 0)
(4.46745 0 0)
(5.67452 0 0)
(7.01905 0 0)
(8.48748 0 0)
(10.0671 0 0)
(11.7448 0 0)
(13.5077 0 0)
(15.3439 0 0)
(17.2425 0 0)
(19.1941 0 0)
(21.1907 0 0)
(23.2255 0 0)
(25.293 0 0)
(27.3885 0 0)
(29.5082 0 0)
(31.6489 0 0)
(33.8079 0 0)
(35.9831 0 0)
(38.1725 0 0)
(40.3746 0 0)
(42.588 0 0)
(44.8114 0 0)
(47.0439 0 0)
(49.2845 0 0)
(51.5324 0 0)
(53.787 0 0)
(56.0475 0 0)
(58.3134 0 0)
(60.5841 0 0)
(62.8592 0 0)
(65.1383 0 0)
(67.4208 0 0)
(69.7065 0 0)
(71.9949 0 0)
(74.2857 0 0)
(76.5786 0 0)
(78.8733 0 0)
(81.1694 0 0)
(83.4666 0 0)
(85.7647 0 0)
(88.0634 0 0)
(90.3623 0 0)
(92.6612 0 0)
(94.9598 0 0)
(97.2578 0 0)
(99.5549 0 0)
(101.851 0 0)
(104.145 0 0)
(106.438 0 0)
(108.728 0 0)
(111.016 0 0)
(113.301 0 0)
(115.583 0 0)
(117.861 0 0)
(120.135 0 0)
(122.405 0 0)
(124.67 0 0)
(126.929 0 0)
(129.183 0 0)
(131.43 0 0)
(133.669 0 0)
(135.901 0 0)
(138.125 0 0)
(140.339 0 0)
(142.544 0 0)
(144.737 0 0)
(146.919 0 0)
(149.088 0 0)
(151.243 0 0)
(153.382 0 0)
(155.506 0 0)
(157.611 0 0)
(159.697 0 0)
(161.762 0 0)
(163.803 0 0)
(165.82 0 0)
(167.809 0 0)
(169.769 0 0)
(171.696 0 0)
(173.588 0 0)
(175.441 0 0)
(177.254 0 0)
(179.02 0 0)
(180.737 0 0)
(182.4 0 0)
(184.005 0 0)
(185.549 0 0)
(187.023 0 0)
(188.426 0 0)
(189.75 0 0)
(190.991 0 0)
(192.146 0 0)
(193.207 0 0)
(194.173 0 0)
(195.04 0 0)
(195.807 0 0)
(196.473 0 0)
(197.04 0 0)
(197.513 0 0)
(197.894 0 0)
(198.192 0 0)
(198.416 0 0)
(198.577 0 0)
(198.682 0 0)
(198.745 0 0)
(198.779 0 0)
(198.789 0 0)
(198.789 0 0)
(198.789 0 0)
(198.787 0 0)
(198.779 0 0)
(198.763 0 0)
(198.737 0 0)
(198.705 0 0)
(198.674 0 0)
(198.647 0 0)
(198.627 0 0)
(198.612 0 0)
(198.602 0 0)
(198.596 0 0)
(198.592 0 0)
(198.59 0 0)
(198.588 0 0)
(198.587 0 0)
(198.586 0 0)
(198.585 0 0)
(198.584 0 0)
(198.582 0 0)
(198.581 0 0)
(198.58 0 0)
(198.579 0 0)
(198.578 0 0)
(198.578 0 0)
(198.577 0 0)
(198.576 0 0)
(198.575 0 0)
(198.574 0 0)
(198.574 0 0)
(198.573 0 0)
(198.572 0 0)
(198.572 0 0)
(198.572 0 0)
(198.571 0 0)
(198.57 0 0)
(198.57 0 0)
(198.569 0 0)
(198.568 0 0)
(198.568 0 0)
(198.567 0 0)
(198.566 0 0)
(198.565 0 0)
(198.565 0 0)
(198.564 0 0)
(198.563 0 0)
(198.562 0 0)
(198.562 0 0)
(198.561 0 0)
(198.56 0 0)
(198.56 0 0)
(198.559 0 0)
(198.558 0 0)
(198.556 0 0)
(198.556 0 0)
(198.556 0 0)
(198.555 0 0)
(198.554 0 0)
(198.554 0 0)
(198.553 0 0)
(198.552 0 0)
(198.551 0 0)
(198.551 0 0)
(198.55 0 0)
(198.55 0 0)
(198.55 0 0)
(198.549 0 0)
(198.549 0 0)
(198.549 0 0)
(198.548 0 0)
(198.546 0 0)
(198.546 0 0)
(198.546 0 0)
(198.545 0 0)
(198.544 0 0)
(198.544 0 0)
(198.544 0 0)
(198.543 0 0)
(198.543 0 0)
(198.543 0 0)
(198.544 0 0)
(198.543 0 0)
(198.541 0 0)
(198.539 0 0)
(198.541 0 0)
(198.542 0 0)
(198.54 0 0)
(198.537 0 0)
(198.535 0 0)
(198.535 0 0)
(198.536 0 0)
(198.536 0 0)
(198.542 0 0)
(198.555 0 0)
(198.581 0 0)
(198.656 0 0)
(198.824 0 0)
(198.916 0 0)
(198.795 0 0)
(198.628 0 0)
(198.529 0 0)
(198.473 0 0)
(198.456 0 0)
(198.482 0 0)
(198.514 0 0)
(198.512 0 0)
(198.495 0 0)
(198.509 0 0)
(198.541 0 0)
(198.544 0 0)
(198.513 0 0)
(198.5 0 0)
(198.53 0 0)
(198.555 0 0)
(198.531 0 0)
(198.497 0 0)
(198.507 0 0)
(198.54 0 0)
(198.539 0 0)
(198.503 0 0)
(198.488 0 0)
(198.519 0 0)
(198.542 0 0)
(198.518 0 0)
(198.486 0 0)
(198.501 0 0)
(198.537 0 0)
(198.533 0 0)
(198.495 0 0)
(198.485 0 0)
(198.52 0 0)
(198.54 0 0)
(198.51 0 0)
(198.479 0 0)
(198.497 0 0)
(198.533 0 0)
(198.524 0 0)
(198.485 0 0)
(198.477 0 0)
(198.512 0 0)
(198.53 0 0)
(198.497 0 0)
(198.466 0 0)
(198.486 0 0)
(198.522 0 0)
(198.509 0 0)
(198.467 0 0)
(198.462 0 0)
(198.498 0 0)
(198.512 0 0)
(198.475 0 0)
(198.443 0 0)
(198.466 0 0)
(198.498 0 0)
(198.478 0 0)
(198.432 0 0)
(198.43 0 0)
(198.467 0 0)
(198.474 0 0)
(198.43 0 0)
(198.396 0 0)
(198.417 0 0)
(198.446 0 0)
(198.419 0 0)
(198.368 0 0)
(198.361 0 0)
(198.392 0 0)
(198.39 0 0)
(198.338 0 0)
(198.3 0 0)
(198.315 0 0)
(198.334 0 0)
(198.293 0 0)
(198.232 0 0)
(198.22 0 0)
(198.24 0 0)
(198.221 0 0)
(198.153 0 0)
(198.105 0 0)
(198.106 0 0)
(198.103 0 0)
(198.039 0 0)
(197.963 0 0)
(197.931 0 0)
(197.925 0 0)
(197.877 0 0)
(197.783 0 0)
(197.71 0 0)
(197.676 0 0)
(197.637 0 0)
(197.537 0 0)
(197.419 0 0)
(197.339 0 0)
(197.281 0 0)
(197.178 0 0)
(197.014 0 0)
(196.87 0 0)
(196.773 0 0)
(196.662 0 0)
(196.448 0 0)
(196.202 0 0)
(196.025 0 0)
(195.883 0 0)
(195.627 0 0)
(195.245 0 0)
(194.911 0 0)
(194.65 0 0)
(194.355 0 0)
(193.86 0 0)
(193.264 0 0)
(192.659 0 0)
(191.997 0 0)
(190.984 0 0)
(188.502 0 0)
(182.813 0 0)
(168.156 0 0)
(121.157 0 0)
(49.9618 0 0)
(13.3865 0 0)
(3.31884 0 0)
(0.794152 0 0)
(0.188154 0 0)
(0.0444606 0 0)
(0.0104968 0 0)
(0.0024774 0 0)
(0.000584655 0 0)
(0.00013797 0 0)
(3.2558e-05 0 0)
(7.68269e-06 0 0)
(1.81281e-06 0 0)
(4.2773e-07 0 0)
(1.0092e-07 0 0)
(2.38104e-08 0 0)
(5.61804e-09 0 0)
(1.32525e-09 0 0)
(3.12643e-10 0 0)
(7.042e-11 0 0)
(1.34912e-11 0 0)
(-2.5772e-12 0 0)
(-8.2058e-12 0 0)
(-9.98131e-12 0 0)
(-7.82771e-12 0 0)
(-7.2921e-12 0 0)
(-5.90488e-12 0 0)
(-3.7202e-12 0 0)
(-1.9383e-12 0 0)
(-1.62533e-12 0 0)
(-5.01861e-13 0 0)
(-3.44072e-12 0 0)
(3.23321e-13 0 0)
(-2.34211e-12 0 0)
(-4.95346e-12 0 0)
(-7.51977e-12 0 0)
(-5.02607e-12 0 0)
(-3.62755e-12 0 0)
(-2.86398e-12 0 0)
(-1.4681e-12 0 0)
(-4.80773e-12 0 0)
(-4.15237e-12 0 0)
(-9.47451e-12 0 0)
(-6.60787e-12 0 0)
(-7.87023e-12 0 0)
(-2.4144e-12 0 0)
(-3.88305e-12 0 0)
(1.5734e-12 0 0)
(-5.23517e-12 0 0)
(-2.27735e-12 0 0)
(-6.00485e-12 0 0)
(-3.41666e-12 0 0)
(-5.56402e-12 0 0)
(-5.35691e-12 0 0)
(-5.53247e-12 0 0)
(-2.21711e-12 0 0)
(-4.0037e-12 0 0)
(1.05031e-12 0 0)
(-1.08626e-12 0 0)
(-6.1178e-13 0 0)
(-1.78936e-13 0 0)
(1.5743e-12 0 0)
(-4.34982e-13 0 0)
(-2.37529e-12 0 0)
(-3.43877e-12 0 0)
(-4.77583e-12 0 0)
(-7.03271e-12 0 0)
(-7.28489e-12 0 0)
(-3.60065e-12 0 0)
(-5.13891e-12 0 0)
(7.56832e-13 0 0)
(-3.53485e-12 0 0)
(-7.35745e-13 0 0)
(-4.00565e-12 0 0)
(2.67424e-13 0 0)
(-3.37428e-12 0 0)
(-2.71856e-12 0 0)
(-4.03144e-12 0 0)
(-4.10223e-12 0 0)
(-3.32199e-12 0 0)
(-1.50106e-13 0 0)
(-3.17929e-12 0 0)
(4.72662e-13 0 0)
(6.47717e-13 0 0)
(-3.23484e-12 0 0)
(-3.49485e-12 0 0)
(-1.50412e-13 0 0)
(-3.24023e-12 0 0)
(-4.57032e-12 0 0)
(-2.06473e-12 0 0)
(-4.29755e-12 0 0)
(-2.23754e-12 0 0)
(-1.94608e-12 0 0)
(1.58675e-12 0 0)
(-4.10021e-12 0 0)
(-2.08081e-12 0 0)
(-4.45676e-12 0 0)
(-1.69581e-12 0 0)
(-1.69675e-12 0 0)
(1.86812e-12 0 0)
(-2.75344e-13 0 0)
(7.53006e-13 0 0)
(-2.18873e-12 0 0)
(-4.38537e-12 0 0)
(-6.00283e-12 0 0)
(-2.65697e-12 0 0)
(-1.91129e-12 0 0)
(-7.9565e-13 0 0)
(-1.13375e-12 0 0)
(-3.37915e-12 0 0)
(-3.28805e-12 0 0)
(-5.67657e-12 0 0)
(-3.07199e-12 0 0)
(-2.71861e-12 0 0)
(1.42675e-12 0 0)
(5.12295e-13 0 0)
(3.74283e-12 0 0)
(4.28379e-12 0 0)
(4.06199e-12 0 0)
(1.1627e-12 0 0)
(2.18532e-12 0 0)
(1.25963e-12 0 0)
(5.62043e-12 0 0)
(-8.28621e-13 0 0)
(5.68527e-12 0 0)
(-1.42906e-12 0 0)
(2.70302e-12 0 0)
(8.44684e-13 0 0)
(2.4344e-12 0 0)
(4.82032e-13 0 0)
(-1.57442e-12 0 0)
(-8.00195e-13 0 0)
(-3.43345e-12 0 0)
(-4.51625e-12 0 0)
(-6.95513e-12 0 0)
(-3.38506e-12 0 0)
(-5.70122e-12 0 0)
(-7.38544e-12 0 0)
(-9.03281e-12 0 0)
(-1.09012e-11 0 0)
(-9.7082e-12 0 0)
(-1.01621e-11 0 0)
(-9.90013e-12 0 0)
(-7.87656e-12 0 0)
(-6.62399e-12 0 0)
(-4.04739e-12 0 0)
(-2.94994e-12 0 0)
(-3.46593e-12 0 0)
(-2.43684e-12 0 0)
(6.17494e-13 0 0)
(1.6565e-12 0 0)
(2.15299e-12 0 0)
(2.83966e-13 0 0)
(5.33278e-12 0 0)
(4.21817e-12 0 0)
(4.3209e-12 0 0)
(5.98773e-12 0 0)
(6.11313e-12 0 0)
(6.18139e-12 0 0)
(7.15681e-12 0 0)
(1.05197e-11 0 0)
(1.08142e-11 0 0)
(1.13541e-11 0 0)
(1.24905e-11 0 0)
(9.60366e-12 0 0)
(9.74599e-12 0 0)
(6.32065e-12 0 0)
(8.49134e-12 0 0)
(8.32819e-12 0 0)
(6.97647e-12 0 0)
(6.45047e-12 0 0)
(6.3767e-12 0 0)
(3.78641e-12 0 0)
(5.72873e-12 0 0)
(3.64572e-12 0 0)
(4.04805e-12 0 0)
(3.47276e-12 0 0)
(2.24906e-12 0 0)
(1.47179e-12 0 0)
(1.33147e-12 0 0)
(3.04397e-12 0 0)
(3.13508e-12 0 0)
(5.10451e-12 0 0)
(5.9038e-12 0 0)
(8.1638e-12 0 0)
(6.25526e-12 0 0)
(4.08745e-12 0 0)
(2.63454e-12 0 0)
(4.17789e-12 0 0)
(5.34638e-12 0 0)
(3.1883e-12 0 0)
(3.04764e-12 0 0)
(4.18853e-13 0 0)
(1.08402e-12 0 0)
(1.55645e-12 0 0)
(3.39181e-12 0 0)
(2.56196e-12 0 0)
(2.51118e-12 0 0)
(4.38306e-12 0 0)
(2.72361e-12 0 0)
(3.75537e-12 0 0)
(2.07974e-12 0 0)
(3.54425e-12 0 0)
(6.45943e-12 0 0)
(5.9341e-12 0 0)
(5.65203e-12 0 0)
(5.27917e-12 0 0)
(2.71863e-12 0 0)
(-4.05997e-13 0 0)
(1.80609e-12 0 0)
(3.15833e-12 0 0)
(-1.4793e-12 0 0)
(3.9544e-12 0 0)
(1.97749e-12 0 0)
(2.21801e-12 0 0)
(-1.65013e-12 0 0)
(6.05289e-13 0 0)
(3.47e-13 0 0)
(-6.74464e-13 0 0)
(4.86286e-12 0 0)
(1.15057e-12 0 0)
(1.36433e-12 0 0)
(-1.97866e-12 0 0)
(3.19932e-12 0 0)
(-1.20933e-12 0 0)
(-8.16904e-13 0 0)
(-4.13511e-12 0 0)
(-1.0069e-12 0 0)
(-8.63777e-13 0 0)
(9.44963e-13 0 0)
(6.1203e-13 0 0)
(1.08507e-12 0 0)
(3.98753e-12 0 0)
(3.55424e-12 0 0)
(7.05874e-12 0 0)
(7.44988e-12 0 0)
(6.61749e-12 0 0)
(5.1947e-12 0 0)
(6.09617e-12 0 0)
(4.25591e-12 0 0)
(2.65427e-12 0 0)
(3.72368e-12 0 0)
(6.769e-12 0 0)
(7.97223e-12 0 0)
(9.46917e-12 0 0)
(7.32556e-12 0 0)
(9.24931e-12 0 0)
(1.01894e-11 0 0)
(7.70559e-12 0 0)
(7.99984e-12 0 0)
(1.0632e-11 0 0)
(1.09439e-11 0 0)
(1.09297e-11 0 0)
(1.14649e-11 0 0)
(1.44281e-11 0 0)
(1.47266e-11 0 0)
(1.59727e-11 0 0)
(1.54519e-11 0 0)
(1.5281e-11 0 0)
(1.60051e-11 0 0)
(1.50448e-11 0 0)
(1.36909e-11 0 0)
(1.70423e-11 0 0)
(1.66864e-11 0 0)
(1.77999e-11 0 0)
(1.46142e-11 0 0)
(1.81656e-11 0 0)
(1.5424e-11 0 0)
(1.50777e-11 0 0)
(1.20662e-11 0 0)
(1.18437e-11 0 0)
(9.65247e-12 0 0)
(1.16494e-11 0 0)
(1.16289e-11 0 0)
(1.12912e-11 0 0)
(1.274e-11 0 0)
(1.40739e-11 0 0)
(1.4976e-11 0 0)
(1.48621e-11 0 0)
(1.74252e-11 0 0)
(1.62696e-11 0 0)
(1.32221e-11 0 0)
(1.25837e-11 0 0)
(1.54197e-11 0 0)
(1.29868e-11 0 0)
(1.39506e-11 0 0)
(1.26831e-11 0 0)
(1.58402e-11 0 0)
(1.51848e-11 0 0)
(1.59187e-11 0 0)
(1.53713e-11 0 0)
(1.9396e-11 0 0)
(1.83087e-11 0 0)
(1.9631e-11 0 0)
(1.84828e-11 0 0)
(1.80703e-11 0 0)
(1.64266e-11 0 0)
(1.5611e-11 0 0)
(1.33503e-11 0 0)
(1.32445e-11 0 0)
(1.61083e-11 0 0)
(1.69554e-11 0 0)
(1.67773e-11 0 0)
(1.6908e-11 0 0)
(1.79239e-11 0 0)
(1.51669e-11 0 0)
(1.68612e-11 0 0)
(1.4523e-11 0 0)
(1.76548e-11 0 0)
(1.61773e-11 0 0)
(1.8864e-11 0 0)
(1.70315e-11 0 0)
(2.13691e-11 0 0)
(1.94931e-11 0 0)
(2.27816e-11 0 0)
(2.11205e-11 0 0)
)
;

boundaryField
{
    sides
    {
        type            zeroGradient;
    }
    empty
    {
        type            empty;
    }
}


// ************************************************************************* //
