-4.995 	400 	1.46077e-11 	100000
-4.985 	400 	1.6675e-11 	100000
-4.975 	400 	1.88652e-11 	100000
-4.965 	400 	1.85231e-11 	100000
-4.955 	400 	2.09809e-11 	100000
-4.945 	400 	2.05958e-11 	100000
-4.935 	400 	1.9166e-11 	100000
-4.925 	400 	1.72916e-11 	100000
-4.915 	400 	1.56237e-11 	100000
-4.905 	400 	1.44683e-11 	100000
-4.895 	400 	1.20611e-11 	100000
-4.885 	400 	1.49339e-11 	100000
-4.875 	400 	1.33107e-11 	100000
-4.865 	400 	1.34058e-11 	100000
-4.855 	400 	1.12223e-11 	100000
-4.845 	400 	1.40855e-11 	100000
-4.835 	400 	1.12791e-11 	100000
-4.825 	400 	1.4872e-11 	100000
-4.815 	400 	1.17115e-11 	100000
-4.805 	400 	1.53788e-11 	100000
-4.795 	400 	1.08804e-11 	100000
-4.785 	400 	1.62077e-11 	100000
-4.775 	400 	1.45959e-11 	100000
-4.765 	400 	1.70521e-11 	100000
-4.755 	400 	1.47633e-11 	100000
-4.745 	400 	1.63149e-11 	100000
-4.735 	400 	1.61764e-11 	100000
-4.725 	400 	1.84612e-11 	100000
-4.715 	400 	1.74001e-11 	100000
-4.705 	400 	1.6124e-11 	100000
-4.695 	400 	1.83925e-11 	100000
-4.685 	400 	1.7966e-11 	100000
-4.675 	400 	1.71118e-11 	100000
-4.665 	400 	1.64759e-11 	100000
-4.655 	400 	1.81754e-11 	100000
-4.645 	400 	1.20284e-11 	100000
-4.635 	400 	1.5629e-11 	100000
-4.625 	400 	1.20668e-11 	100000
-4.615 	400 	1.59647e-11 	100000
-4.605 	400 	1.36122e-11 	100000
-4.595 	400 	1.86498e-11 	100000
-4.585 	400 	1.70602e-11 	100000
-4.575 	400 	1.85301e-11 	100000
-4.565 	400 	1.43364e-11 	100000
-4.555 	400 	1.8686e-11 	100000
-4.545 	400 	1.48788e-11 	100000
-4.535 	400 	1.60217e-11 	100000
-4.525 	400 	1.47459e-11 	100000
-4.515 	400 	1.52209e-11 	100000
-4.505 	400 	1.09497e-11 	100000
-4.495 	400 	1.42812e-11 	100000
-4.485 	400 	1.22521e-11 	100000
-4.475 	400 	1.41181e-11 	100000
-4.465 	400 	1.39067e-11 	100000
-4.455 	400 	1.07566e-11 	100000
-4.445 	400 	1.14946e-11 	100000
-4.435 	400 	1.31518e-11 	100000
-4.425 	400 	1.44374e-11 	100000
-4.415 	400 	1.3295e-11 	100000
-4.405 	400 	1.56311e-11 	100000
-4.395 	400 	1.26885e-11 	100000
-4.385 	400 	1.44842e-11 	100000
-4.375 	400 	1.20585e-11 	100000
-4.365 	400 	1.23707e-11 	100000
-4.355 	400 	9.75218e-12 	100000
-4.345 	400 	1.21514e-11 	100000
-4.335 	400 	8.54717e-12 	100000
-4.325 	400 	1.36615e-11 	100000
-4.315 	400 	1.08879e-11 	100000
-4.305 	400 	1.39842e-11 	100000
-4.295 	400 	7.42939e-12 	100000
-4.285 	400 	9.78294e-12 	100000
-4.275 	400 	4.34841e-12 	100000
-4.265 	400 	7.8786e-12 	100000
-4.255 	400 	2.27151e-12 	100000
-4.245 	400 	4.92903e-12 	100000
-4.235 	400 	1.48562e-12 	100000
-4.225 	400 	2.07774e-12 	100000
-4.215 	400 	4.18546e-13 	100000
-4.205 	400 	1.66257e-12 	100000
-4.195 	400 	2.90264e-12 	100000
-4.185 	400 	5.37692e-12 	100000
-4.175 	400 	3.19863e-12 	100000
-4.165 	400 	2.89324e-12 	100000
-4.155 	400 	3.99537e-12 	100000
-4.145 	400 	3.47942e-13 	100000
-4.135 	400 	2.8633e-12 	100000
-4.125 	400 	3.00944e-12 	100000
-4.115 	400 	2.90723e-12 	100000
-4.105 	400 	1.84456e-12 	100000
-4.095 	400 	1.83699e-12 	100000
-4.085 	400 	5.99122e-12 	100000
-4.075 	400 	1.94613e-12 	100000
-4.065 	400 	4.46441e-12 	100000
-4.055 	400 	4.26622e-13 	100000
-4.045 	400 	1.11078e-12 	100000
-4.035 	400 	1.29236e-12 	100000
-4.025 	400 	4.56954e-12 	100000
-4.015 	400 	3.17114e-12 	100000
-4.005 	400 	6.80907e-12 	100000
-3.995 	400 	5.94053e-12 	100000
-3.985 	400 	6.1661e-12 	100000
-3.975 	400 	8.35399e-12 	100000
-3.965 	400 	6.20716e-12 	100000
-3.955 	400 	9.21559e-12 	100000
-3.945 	400 	8.11205e-12 	100000
-3.935 	400 	8.00543e-12 	100000
-3.925 	400 	7.97493e-12 	100000
-3.915 	400 	6.10425e-12 	100000
-3.905 	400 	8.7719e-12 	100000
-3.895 	400 	9.67198e-12 	100000
-3.885 	400 	8.25386e-12 	100000
-3.875 	400 	8.52283e-12 	100000
-3.865 	400 	8.81833e-12 	100000
-3.855 	400 	9.97874e-12 	100000
-3.845 	400 	1.26285e-11 	100000
-3.835 	400 	1.25118e-11 	100000
-3.825 	400 	1.10331e-11 	100000
-3.815 	400 	1.39985e-11 	100000
-3.805 	400 	1.17466e-11 	100000
-3.795 	400 	1.23441e-11 	100000
-3.785 	400 	1.40637e-11 	100000
-3.775 	400 	1.33071e-11 	100000
-3.765 	400 	1.34196e-11 	100000
-3.755 	400 	1.3063e-11 	100000
-3.745 	400 	1.16884e-11 	100000
-3.735 	400 	1.20777e-11 	100000
-3.725 	400 	1.45852e-11 	100000
-3.715 	400 	1.27999e-11 	100000
-3.705 	400 	1.5884e-11 	100000
-3.695 	400 	1.54545e-11 	100000
-3.685 	400 	1.55351e-11 	100000
-3.675 	400 	1.61727e-11 	100000
-3.665 	400 	1.55736e-11 	100000
-3.655 	400 	1.61555e-11 	100000
-3.645 	400 	1.70432e-11 	100000
-3.635 	400 	1.57301e-11 	100000
-3.625 	400 	1.51288e-11 	100000
-3.615 	400 	1.57831e-11 	100000
-3.605 	400 	1.60692e-11 	100000
-3.595 	400 	1.62933e-11 	100000
-3.585 	400 	1.84193e-11 	100000
-3.575 	400 	1.65213e-11 	100000
-3.565 	400 	1.70072e-11 	100000
-3.555 	400 	1.52204e-11 	100000
-3.545 	400 	1.38135e-11 	100000
-3.535 	400 	1.49396e-11 	100000
-3.525 	400 	1.39794e-11 	100000
-3.515 	400 	1.5152e-11 	100000
-3.505 	400 	1.26309e-11 	100000
-3.495 	400 	1.46417e-11 	100000
-3.485 	400 	1.35134e-11 	100000
-3.475 	400 	1.77094e-11 	100000
-3.465 	400 	1.47008e-11 	100000
-3.455 	400 	1.79211e-11 	100000
-3.445 	400 	1.8657e-11 	100000
-3.435 	400 	1.874e-11 	100000
-3.425 	400 	1.92045e-11 	100000
-3.415 	400 	1.79507e-11 	100000
-3.405 	400 	2.12336e-11 	100000
-3.395 	400 	2.08844e-11 	100000
-3.385 	400 	1.83964e-11 	100000
-3.375 	400 	1.84044e-11 	100000
-3.365 	400 	2.05789e-11 	100000
-3.355 	400 	2.19044e-11 	100000
-3.345 	400 	2.30727e-11 	100000
-3.335 	400 	2.3541e-11 	100000
-3.325 	400 	2.31646e-11 	100000
-3.315 	400 	2.27711e-11 	100000
-3.305 	400 	2.27329e-11 	100000
-3.295 	400 	2.2945e-11 	100000
-3.285 	400 	2.38327e-11 	100000
-3.275 	400 	2.42284e-11 	100000
-3.265 	400 	2.51616e-11 	100000
-3.255 	400 	2.18294e-11 	100000
-3.245 	400 	2.13247e-11 	100000
-3.235 	400 	1.90055e-11 	100000
-3.225 	400 	2.0574e-11 	100000
-3.215 	400 	1.88327e-11 	100000
-3.205 	400 	2.28655e-11 	100000
-3.195 	400 	2.0658e-11 	100000
-3.185 	400 	2.12812e-11 	100000
-3.175 	400 	1.93728e-11 	100000
-3.165 	400 	1.89542e-11 	100000
-3.155 	400 	1.7789e-11 	100000
-3.145 	400 	1.69852e-11 	100000
-3.135 	400 	1.50385e-11 	100000
-3.125 	400 	1.49613e-11 	100000
-3.115 	400 	1.36695e-11 	100000
-3.105 	400 	1.5254e-11 	100000
-3.095 	400 	1.68234e-11 	100000
-3.085 	400 	1.21889e-11 	100000
-3.075 	400 	1.49757e-11 	100000
-3.065 	400 	1.06551e-11 	100000
-3.055 	400 	1.50611e-11 	100000
-3.045 	400 	1.35145e-11 	100000
-3.035 	400 	1.62e-11 	100000
-3.025 	400 	1.43466e-11 	100000
-3.015 	400 	1.61441e-11 	100000
-3.005 	400 	1.26175e-11 	100000
-2.995 	400 	1.56563e-11 	100000
-2.985 	400 	1.04086e-11 	100000
-2.975 	400 	1.17816e-11 	100000
-2.965 	400 	8.28946e-12 	100000
-2.955 	400 	1.03729e-11 	100000
-2.945 	400 	9.99306e-12 	100000
-2.935 	400 	1.02618e-11 	100000
-2.925 	400 	9.6219e-12 	100000
-2.915 	400 	1.19011e-11 	100000
-2.905 	400 	1.17735e-11 	100000
-2.895 	400 	1.18457e-11 	100000
-2.885 	400 	1.29269e-11 	100000
-2.875 	400 	1.21065e-11 	100000
-2.865 	400 	1.35276e-11 	100000
-2.855 	400 	1.20218e-11 	100000
-2.845 	400 	1.74963e-11 	100000
-2.835 	400 	1.40336e-11 	100000
-2.825 	400 	1.68442e-11 	100000
-2.815 	400 	1.1155e-11 	100000
-2.805 	400 	1.84605e-11 	100000
-2.795 	400 	2.33286e-11 	100000
-2.785 	400 	4.54805e-11 	100000
-2.775 	400 	7.7255e-11 	100000
-2.765 	400 	1.55424e-10 	100000
-2.755 	400 	3.0359e-10 	100000
-2.745 	400 	6.16802e-10 	100000
-2.735 	400 	1.23076e-09 	100000
-2.725 	400 	2.45496e-09 	100000
-2.715 	400 	4.85352e-09 	100000
-2.705 	400 	9.53774e-09 	100000
-2.695 	400 	1.86039e-08 	100000
-2.685 	400 	3.6029e-08 	100000
-2.675 	400 	6.92632e-08 	100000
-2.665 	400 	1.32166e-07 	100000
-2.655 	400 	2.50306e-07 	100000
-2.645 	400 	4.70443e-07 	100000
-2.635 	400 	8.77388e-07 	100000
-2.625 	400 	1.62357e-06 	100000
-2.615 	400 	2.98054e-06 	100000
-2.605 	400 	5.42764e-06 	100000
-2.595 	400 	9.80305e-06 	100000
-2.585 	400 	1.75584e-05 	100000
-2.575 	400 	3.11832e-05 	100000
-2.565 	400 	5.49037e-05 	100000
-2.555 	400 	9.58204e-05 	100000
-2.545 	400 	0.000165736 	99999.9
-2.535 	400 	0.000284052 	99999.9
-2.525 	400 	0.000482305 	99999.8
-2.515 	400 	0.00081115 	99999.7
-2.505 	399.999 	0.00135096 	99999.5
-2.495 	399.999 	0.00222766 	99999.2
-2.485 	399.999 	0.00363592 	99998.7
-2.475 	399.998 	0.00587254 	99998
-2.465 	399.996 	0.0093835 	99996.8
-2.455 	399.994 	0.0148287 	99994.9
-2.445 	399.991 	0.0231685 	99992
-2.435 	399.986 	0.035777 	99987.6
-2.425 	399.978 	0.0545833 	99981.1
-2.415 	399.967 	0.0822422 	99971.5
-2.405 	399.951 	0.122328 	99957.7
-2.395 	399.929 	0.179536 	99937.8
-2.385 	399.897 	0.259879 	99909.9
-2.375 	399.853 	0.370817 	99871.4
-2.365 	399.793 	0.521302 	99819.2
-2.355 	399.713 	0.721638 	99749.6
-2.345 	399.609 	0.9831 	99658.7
-2.335 	399.475 	1.31721 	99542.6
-2.325 	399.309 	1.73455 	99397.4
-2.315 	399.105 	2.24287 	99220.6
-2.305 	398.864 	2.84427 	99011.2
-2.295 	398.587 	3.53364 	98771.5
-2.285 	398.279 	4.30169 	98505.3
-2.275 	397.944 	5.13961 	98215.8
-2.265 	397.584 	6.04032 	97905.6
-2.255 	397.202 	6.9977 	97576.9
-2.245 	396.799 	8.006 	97231.9
-2.235 	396.379 	9.0597 	96872.5
-2.225 	395.943 	10.1535 	96500.8
-2.215 	395.493 	11.2827 	96118.4
-2.205 	395.032 	12.4429 	95727
-2.195 	394.56 	13.6301 	95328
-2.185 	394.079 	14.841 	94922.5
-2.175 	393.59 	16.0727 	94511.7
-2.165 	393.094 	17.3226 	94096.4
-2.155 	392.593 	18.5886 	93677.4
-2.145 	392.086 	19.8687 	93255.4
-2.135 	391.574 	21.1614 	92831
-2.125 	391.059 	22.4654 	92404.6
-2.115 	390.54 	23.7793 	91976.7
-2.105 	390.017 	25.1023 	91547.7
-2.095 	389.492 	26.4335 	91117.7
-2.085 	388.965 	27.772 	90687.1
-2.075 	388.435 	29.1173 	90256.2
-2.065 	387.903 	30.4687 	89825.1
-2.055 	387.37 	31.8257 	89394.1
-2.045 	386.834 	33.1878 	88963.2
-2.035 	386.298 	34.5548 	88532.6
-2.025 	385.76 	35.9261 	88102.5
-2.015 	385.221 	37.3015 	87672.9
-2.005 	384.68 	38.6807 	87244
-1.995 	384.139 	40.0633 	86815.8
-1.985 	383.597 	41.4493 	86388.4
-1.975 	383.054 	42.8383 	85961.9
-1.965 	382.511 	44.2302 	85536.4
-1.955 	381.966 	45.6248 	85111.9
-1.945 	381.422 	47.0219 	84688.4
-1.935 	380.876 	48.4213 	84266.1
-1.925 	380.33 	49.823 	83844.9
-1.915 	379.784 	51.2267 	83424.9
-1.905 	379.238 	52.6324 	83006.1
-1.895 	378.691 	54.04 	82588.6
-1.885 	378.144 	55.4492 	82172.5
-1.875 	377.597 	56.8602 	81757.6
-1.865 	377.049 	58.2726 	81344.1
-1.855 	376.502 	59.6865 	80932
-1.845 	375.954 	61.1018 	80521.3
-1.835 	375.406 	62.5183 	80112
-1.825 	374.858 	63.9361 	79704.2
-1.815 	374.31 	65.355 	79297.8
-1.805 	373.762 	66.7749 	78892.9
-1.795 	373.214 	68.1958 	78489.5
-1.785 	372.666 	69.6177 	78087.7
-1.775 	372.119 	71.0404 	77687.3
-1.765 	371.571 	72.4639 	77288.5
-1.755 	371.023 	73.8881 	76891.2
-1.745 	370.476 	75.313 	76495.6
-1.735 	369.929 	76.7385 	76101.5
-1.725 	369.382 	78.1646 	75708.9
-1.715 	368.835 	79.5912 	75318
-1.705 	368.288 	81.0183 	74928.7
-1.695 	367.742 	82.4457 	74541
-1.685 	367.196 	83.8736 	74154.9
-1.675 	366.65 	85.3017 	73770.5
-1.665 	366.104 	86.73 	73387.7
-1.655 	365.559 	88.1586 	73006.6
-1.645 	365.014 	89.5873 	72627.1
-1.635 	364.47 	91.0161 	72249.3
-1.625 	363.926 	92.4449 	71873.1
-1.615 	363.382 	93.8738 	71498.7
-1.605 	362.839 	95.3026 	71125.9
-1.595 	362.296 	96.7313 	70754.8
-1.585 	361.754 	98.1598 	70385.4
-1.575 	361.212 	99.5881 	70017.8
-1.565 	360.671 	101.016 	69651.8
-1.555 	360.13 	102.444 	69287.5
-1.545 	359.59 	103.871 	68925
-1.535 	359.05 	105.298 	68564.2
-1.525 	358.511 	106.725 	68205.2
-1.515 	357.972 	108.151 	67847.9
-1.505 	357.434 	109.576 	67492.3
-1.495 	356.897 	111.001 	67138.5
-1.485 	356.36 	112.425 	66786.5
-1.475 	355.824 	113.848 	66436.2
-1.465 	355.289 	115.27 	66087.7
-1.455 	354.755 	116.692 	65741
-1.445 	354.221 	118.112 	65396.1
-1.435 	353.688 	119.532 	65053
-1.425 	353.156 	120.95 	64711.7
-1.415 	352.625 	122.367 	64372.2
-1.405 	352.095 	123.783 	64034.6
-1.395 	351.565 	125.197 	63698.8
-1.385 	351.037 	126.61 	63364.9
-1.375 	350.509 	128.022 	63032.8
-1.365 	349.983 	129.431 	62702.6
-1.355 	349.457 	130.839 	62374.3
-1.345 	348.933 	132.245 	62047.9
-1.335 	348.41 	133.65 	61723.4
-1.325 	347.887 	135.052 	61400.8
-1.315 	347.367 	136.451 	61080.2
-1.305 	346.847 	137.849 	60761.5
-1.295 	346.329 	139.244 	60444.9
-1.285 	345.812 	140.636 	60130.2
-1.275 	345.296 	142.026 	59817.6
-1.265 	344.782 	143.412 	59507
-1.255 	344.27 	144.796 	59198.5
-1.245 	343.759 	146.176 	58892.1
-1.235 	343.25 	147.553 	58587.9
-1.225 	342.742 	148.926 	58285.8
-1.215 	342.237 	150.295 	57985.9
-1.205 	341.733 	151.659 	57688.2
-1.195 	341.232 	153.019 	57392.9
-1.185 	340.732 	154.375 	57099.8
-1.175 	340.235 	155.725 	56809.1
-1.165 	339.74 	157.071 	56520.8
-1.155 	339.247 	158.41 	56234.9
-1.145 	338.757 	159.743 	55951.6
-1.135 	338.27 	161.07 	55670.8
-1.125 	337.786 	162.39 	55392.7
-1.115 	337.305 	163.703 	55117.3
-1.105 	336.827 	165.008 	54844.7
-1.095 	336.352 	166.305 	54575
-1.085 	335.881 	167.592 	54308.3
-1.075 	335.415 	168.871 	54044.6
-1.065 	334.949 	170.139 	53784.1
-1.055 	334.495 	171.396 	53526.9
-1.045 	334.033 	172.641 	53273.1
-1.035 	333.597 	173.874 	53022.9
-1.025 	333.13 	175.094 	52776.3
-1.015 	332.729 	176.299 	52533.6
-1.005 	332.239 	177.488 	52294.8
-0.995 	331.894 	178.662 	52060.5
-0.985 	331.368 	179.817 	51830.3
-0.975 	331.084 	180.954 	51605
-0.965 	330.539 	182.07 	51384.2
-0.955 	330.276 	183.164 	51168.9
-0.945 	329.787 	184.235 	50958.5
-0.935 	329.455 	185.28 	50754
-0.925 	329.109 	186.299 	50555.4
-0.915 	328.668 	187.289 	50362.9
-0.905 	328.439 	188.248 	50177.1
-0.895 	327.999 	189.174 	49998
-0.885 	327.728 	190.065 	49826.2
-0.875 	327.449 	190.92 	49662
-0.865 	327.064 	191.734 	49505.6
-0.855 	326.891 	192.508 	49357.6
-0.845 	326.569 	193.239 	49217.9
-0.835 	326.306 	193.924 	49087.2
-0.825 	326.156 	194.563 	48965.7
-0.815 	325.861 	195.153 	48853.4
-0.805 	325.698 	195.694 	48750.6
-0.795 	325.561 	196.185 	48657.4
-0.785 	325.334 	196.625 	48573.8
-0.775 	325.238 	197.016 	48499.6
-0.765 	325.13 	197.358 	48434.7
-0.755 	324.977 	197.652 	48378.7
-0.745 	324.923 	197.902 	48331.4
-0.735 	324.857 	198.109 	48291.8
-0.725 	324.766 	198.277 	48259.7
-0.715 	324.739 	198.41 	48234.4
-0.705 	324.712 	198.512 	48214.7
-0.695 	324.667 	198.587 	48200.2
-0.685 	324.653 	198.64 	48190
-0.675 	324.651 	198.674 	48183.2
-0.665 	324.64 	198.693 	48179.5
-0.655 	324.634 	198.703 	48177.4
-0.645 	324.636 	198.705 	48177.1
-0.635 	324.639 	198.705 	48177.1
-0.625 	324.639 	198.705 	48177.2
-0.615 	324.639 	198.703 	48177.5
-0.605 	324.641 	198.699 	48178.2
-0.595 	324.646 	198.691 	48179.5
-0.585 	324.651 	198.677 	48181.7
-0.575 	324.655 	198.662 	48184.6
-0.565 	324.663 	198.647 	48187.4
-0.555 	324.669 	198.633 	48189.9
-0.545 	324.672 	198.621 	48192.1
-0.535 	324.677 	198.612 	48193.8
-0.525 	324.68 	198.605 	48195.1
-0.515 	324.681 	198.6 	48196
-0.505 	324.684 	198.597 	48196.6
-0.495 	324.686 	198.594 	48197.1
-0.485 	324.687 	198.593 	48197.4
-0.475 	324.688 	198.592 	48197.7
-0.465 	324.689 	198.591 	48197.9
-0.455 	324.69 	198.59 	48198
-0.445 	324.691 	198.589 	48198.1
-0.435 	324.692 	198.588 	48198.2
-0.425 	324.693 	198.588 	48198.3
-0.415 	324.694 	198.587 	48198.4
-0.405 	324.695 	198.586 	48198.6
-0.395 	324.696 	198.586 	48198.7
-0.385 	324.697 	198.585 	48198.8
-0.375 	324.698 	198.584 	48198.9
-0.365 	324.7 	198.584 	48199
-0.355 	324.701 	198.583 	48199.1
-0.345 	324.701 	198.582 	48199.2
-0.335 	324.703 	198.582 	48199.3
-0.325 	324.704 	198.581 	48199.4
-0.315 	324.705 	198.581 	48199.5
-0.305 	324.706 	198.58 	48199.6
-0.295 	324.707 	198.579 	48199.7
-0.285 	324.708 	198.579 	48199.8
-0.275 	324.709 	198.578 	48199.9
-0.265 	324.71 	198.578 	48199.9
-0.255 	324.712 	198.577 	48200
-0.245 	324.713 	198.576 	48200.1
-0.235 	324.714 	198.576 	48200.2
-0.225 	324.715 	198.575 	48200.3
-0.215 	324.717 	198.575 	48200.4
-0.205 	324.717 	198.574 	48200.5
-0.195 	324.719 	198.574 	48200.6
-0.185 	324.72 	198.573 	48200.6
-0.175 	324.721 	198.573 	48200.7
-0.165 	324.722 	198.572 	48200.8
-0.155 	324.724 	198.572 	48200.9
-0.145 	324.726 	198.571 	48201
-0.135 	324.726 	198.571 	48201
-0.125 	324.728 	198.57 	48201.1
-0.115 	324.73 	198.57 	48201.2
-0.105 	324.731 	198.569 	48201.3
-0.095 	324.732 	198.569 	48201.4
-0.085 	324.734 	198.568 	48201.4
-0.075 	324.735 	198.567 	48201.5
-0.065 	324.736 	198.567 	48201.6
-0.055 	324.738 	198.566 	48201.6
-0.045 	324.74 	198.566 	48201.7
-0.035 	324.741 	198.565 	48201.8
-0.025 	324.743 	198.565 	48201.9
-0.015 	324.744 	198.565 	48202
-0.005 	324.746 	198.564 	48202
0.005 	324.747 	198.563 	48202.1
0.015 	324.749 	198.563 	48202.2
0.025 	324.751 	198.562 	48202.2
0.035 	324.752 	198.562 	48202.3
0.045 	324.754 	198.561 	48202.4
0.055 	324.757 	198.561 	48202.5
0.065 	324.758 	198.56 	48202.5
0.075 	324.759 	198.56 	48202.6
0.085 	324.762 	198.559 	48202.7
0.095 	324.764 	198.559 	48202.8
0.105 	324.765 	198.558 	48202.8
0.115 	324.767 	198.558 	48202.9
0.125 	324.77 	198.557 	48203
0.135 	324.772 	198.557 	48203
0.145 	324.774 	198.557 	48203.1
0.155 	324.775 	198.556 	48203.1
0.165 	324.778 	198.556 	48203.2
0.175 	324.781 	198.555 	48203.2
0.185 	324.782 	198.555 	48203.3
0.195 	324.784 	198.555 	48203.3
0.205 	324.786 	198.554 	48203.3
0.215 	324.789 	198.554 	48203.4
0.225 	324.792 	198.554 	48203.4
0.235 	324.793 	198.553 	48203.4
0.245 	324.795 	198.553 	48203.5
0.255 	324.799 	198.553 	48203.5
0.265 	324.802 	198.553 	48203.5
0.275 	324.804 	198.552 	48203.6
0.285 	324.805 	198.552 	48203.6
0.295 	324.808 	198.552 	48203.6
0.305 	324.813 	198.552 	48203.6
0.315 	324.816 	198.552 	48203.6
0.325 	324.817 	198.551 	48203.7
0.335 	324.819 	198.551 	48203.7
0.345 	324.823 	198.551 	48203.7
0.355 	324.828 	198.551 	48203.7
0.365 	324.831 	198.551 	48203.7
0.375 	324.832 	198.551 	48203.7
0.385 	324.835 	198.55 	48203.7
0.395 	324.84 	198.55 	48203.7
0.405 	324.845 	198.55 	48203.7
0.415 	324.849 	198.55 	48203.7
0.425 	324.851 	198.55 	48203.7
0.435 	324.853 	198.55 	48203.7
0.445 	324.857 	198.549 	48203.7
0.455 	324.864 	198.549 	48203.7
0.465 	324.869 	198.549 	48203.7
0.475 	324.872 	198.549 	48203.7
0.485 	324.874 	198.549 	48203.8
0.495 	324.878 	198.548 	48203.8
0.505 	324.884 	198.548 	48203.8
0.515 	324.892 	198.548 	48203.8
0.525 	324.897 	198.548 	48203.8
0.535 	324.9 	198.548 	48203.9
0.545 	324.902 	198.547 	48203.9
0.555 	324.906 	198.547 	48203.9
0.565 	324.914 	198.547 	48203.9
0.575 	324.923 	198.547 	48203.9
0.585 	324.932 	198.546 	48203.9
0.595 	324.937 	198.546 	48204
0.605 	324.94 	198.546 	48204
0.615 	324.942 	198.546 	48203.9
0.625 	324.949 	198.545 	48204
0.635 	324.96 	198.545 	48204.1
0.645 	324.973 	198.545 	48204.1
0.655 	324.983 	198.545 	48204.1
0.665 	324.989 	198.544 	48204.1
0.675 	324.992 	198.544 	48204.1
0.685 	324.995 	198.544 	48204.2
0.695 	325.004 	198.544 	48204.2
0.705 	325.019 	198.543 	48204.2
0.715 	325.036 	198.543 	48204.2
0.725 	325.05 	198.542 	48204.2
0.735 	325.058 	198.542 	48204.2
0.745 	325.062 	198.542 	48204.3
0.755 	325.066 	198.542 	48204.2
0.765 	325.076 	198.542 	48204.2
0.775 	325.098 	198.541 	48204.3
0.785 	325.122 	198.541 	48204.3
0.795 	325.142 	198.541 	48204.3
0.805 	325.155 	198.54 	48204.2
0.815 	325.161 	198.54 	48204.2
0.825 	325.166 	198.54 	48204.2
0.835 	325.177 	198.54 	48204.2
0.845 	325.204 	198.54 	48204.1
0.855 	325.243 	198.539 	48204.1
0.865 	325.281 	198.539 	48204.1
0.875 	325.31 	198.539 	48204.1
0.885 	325.328 	198.539 	48204.1
0.895 	325.337 	198.539 	48204.1
0.905 	325.343 	198.539 	48203.9
0.915 	325.353 	198.539 	48203.9
0.925 	325.386 	198.539 	48204
0.935 	325.471 	198.539 	48203.9
0.945 	325.569 	198.539 	48203.8
0.955 	325.657 	198.539 	48203.7
0.965 	325.723 	198.539 	48203.8
0.975 	325.763 	198.539 	48203.8
0.985 	325.78 	198.539 	48203.7
0.995 	325.782 	198.539 	48203.4
1.005 	325.761 	198.539 	48203.3
1.015 	325.666 	198.539 	48203.6
1.025 	325.549 	198.542 	48204.6
1.035 	325.474 	198.55 	48205.5
1.045 	325.451 	198.567 	48205.2
1.055 	325.61 	198.622 	48204.4
1.065 	327.308 	198.756 	48207.2
1.075 	335.588 	198.84 	48217
1.085 	354.917 	198.757 	48191.6
1.095 	376.182 	198.626 	48202.6
1.105 	396.852 	198.541 	48206.4
1.115 	415.876 	198.487 	48200.1
1.125 	432.559 	198.466 	48196.7
1.135 	446.569 	198.487 	48207.3
1.145 	457.81 	198.516 	48212.3
1.155 	466.463 	198.519 	48206.3
1.165 	472.89 	198.506 	48197.3
1.175 	477.548 	198.516 	48200.8
1.185 	480.833 	198.543 	48212.1
1.195 	483.04 	198.55 	48211.7
1.205 	484.461 	198.529 	48199.1
1.215 	485.391 	198.517 	48196.9
1.225 	486.012 	198.536 	48208.6
1.235 	486.388 	198.554 	48213.5
1.245 	486.573 	198.537 	48203.4
1.255 	486.669 	198.513 	48194.9
1.265 	486.757 	198.526 	48202.1
1.275 	486.834 	198.556 	48215.2
1.285 	486.842 	198.55 	48210.5
1.295 	486.796 	198.517 	48194.2
1.305 	486.793 	198.512 	48194.9
1.315 	486.845 	198.542 	48212.9
1.325 	486.854 	198.556 	48215.7
1.335 	486.804 	198.527 	48199.6
1.345 	486.776 	198.502 	48192.9
1.355 	486.805 	198.522 	48205.3
1.365 	486.838 	198.552 	48215.7
1.375 	486.82 	198.54 	48208.8
1.385 	486.768 	198.508 	48194
1.395 	486.767 	198.507 	48196.3
1.405 	486.817 	198.538 	48213.1
1.415 	486.823 	198.549 	48214.6
1.425 	486.773 	198.521 	48198.4
1.435 	486.75 	198.501 	48193.2
1.445 	486.784 	198.524 	48206.6
1.455 	486.813 	198.551 	48215.7
1.465 	486.788 	198.534 	48206.2
1.475 	486.741 	198.503 	48192.9
1.485 	486.749 	198.51 	48198.5
1.495 	486.799 	198.543 	48214.7
1.505 	486.797 	198.544 	48212.9
1.515 	486.739 	198.511 	48194.9
1.525 	486.727 	198.5 	48193.3
1.535 	486.775 	198.531 	48210.5
1.545 	486.795 	198.552 	48216.3
1.555 	486.754 	198.526 	48202
1.565 	486.717 	198.497 	48191.7
1.575 	486.74 	198.515 	48202.1
1.585 	486.787 	198.548 	48216.5
1.595 	486.773 	198.539 	48210.3
1.605 	486.712 	198.502 	48192.2
1.615 	486.709 	198.499 	48193.9
1.625 	486.767 	198.536 	48213.3
1.635 	486.78 	198.552 	48216.7
1.645 	486.731 	198.521 	48200
1.655 	486.699 	198.494 	48191.4
1.665 	486.726 	198.514 	48202.6
1.675 	486.768 	198.546 	48215.7
1.685 	486.756 	198.537 	48209.9
1.695 	486.699 	198.502 	48193.1
1.705 	486.698 	198.5 	48194.7
1.715 	486.752 	198.533 	48212.7
1.725 	486.763 	198.546 	48215.1
1.735 	486.712 	198.515 	48198.1
1.745 	486.686 	198.492 	48191.4
1.755 	486.722 	198.517 	48205.3
1.765 	486.758 	198.547 	48216.3
1.775 	486.735 	198.53 	48207
1.785 	486.684 	198.496 	48191.8
1.795 	486.689 	198.5 	48196.1
1.805 	486.746 	198.535 	48214
1.815 	486.75 	198.542 	48214
1.825 	486.693 	198.508 	48195.6
1.835 	486.675 	198.49 	48191.5
1.845 	486.722 	198.521 	48208.4
1.855 	486.751 	198.546 	48216.6
1.865 	486.713 	198.521 	48202.6
1.875 	486.669 	198.487 	48190
1.885 	486.69 	198.503 	48199.7
1.895 	486.744 	198.541 	48216.2
1.905 	486.736 	198.536 	48211.7
1.915 	486.672 	198.495 	48191.9
1.925 	486.664 	198.487 	48191.4
1.935 	486.723 	198.524 	48211.5
1.945 	486.743 	198.544 	48216.8
1.955 	486.693 	198.512 	48199.2
1.965 	486.656 	198.48 	48189
1.975 	486.687 	198.502 	48201.5
1.985 	486.735 	198.539 	48216.3
1.995 	486.721 	198.529 	48209.6
2.005 	486.659 	198.488 	48190.8
2.015 	486.656 	198.484 	48192
2.025 	486.717 	198.522 	48212.1
2.035 	486.732 	198.537 	48215.6
2.045 	486.677 	198.503 	48196.7
2.055 	486.647 	198.475 	48188.6
2.065 	486.686 	198.501 	48203.6
2.075 	486.728 	198.535 	48216.2
2.085 	486.703 	198.517 	48205.9
2.095 	486.646 	198.477 	48188.8
2.105 	486.652 	198.48 	48193.4
2.115 	486.715 	198.52 	48213.6
2.125 	486.722 	198.528 	48214
2.135 	486.658 	198.489 	48193.1
2.145 	486.636 	198.465 	48187.6
2.155 	486.684 	198.496 	48205.2
2.165 	486.721 	198.527 	48215.5
2.175 	486.688 	198.504 	48202.4
2.185 	486.637 	198.463 	48187.4
2.195 	486.648 	198.471 	48193.8
2.205 	486.709 	198.511 	48212.8
2.215 	486.71 	198.512 	48211.3
2.225 	486.644 	198.47 	48190
2.235 	486.627 	198.451 	48186.4
2.245 	486.682 	198.484 	48205.6
2.255 	486.712 	198.51 	48213.9
2.265 	486.668 	198.48 	48197.6
2.275 	486.623 	198.44 	48184.4
2.285 	486.643 	198.454 	48193.9
2.295 	486.701 	198.492 	48211.4
2.305 	486.694 	198.484 	48206.7
2.315 	486.626 	198.439 	48185.6
2.325 	486.616 	198.424 	48184.2
2.335 	486.674 	198.458 	48204.1
2.345 	486.697 	198.477 	48210
2.355 	486.644 	198.44 	48191.1
2.365 	486.605 	198.401 	48180.3
2.375 	486.632 	198.417 	48191.9
2.385 	486.683 	198.45 	48207.1
2.395 	486.666 	198.433 	48199
2.405 	486.6 	198.384 	48179
2.415 	486.597 	198.374 	48179.9
2.425 	486.659 	198.407 	48200.1
2.435 	486.673 	198.413 	48202.6
2.445 	486.607 	198.366 	48180.3
2.455 	486.577 	198.329 	48172.2
2.465 	486.617 	198.348 	48187.5
2.475 	486.66 	198.373 	48199.7
2.485 	486.623 	198.339 	48184.5
2.495 	486.562 	198.283 	48166.7
2.505 	486.568 	198.277 	48171.1
2.515 	486.63 	198.306 	48190.7
2.525 	486.63 	198.295 	48188.2
2.535 	486.55 	198.234 	48162.6
2.545 	486.53 	198.195 	48157.5
2.555 	486.575 	198.21 	48173.8
2.565 	486.61 	198.221 	48183
2.575 	486.555 	198.17 	48162.7
2.585 	486.503 	198.105 	48147.5
2.595 	486.509 	198.092 	48151.9
2.605 	486.562 	198.107 	48168.5
2.615 	486.552 	198.075 	48161.6
2.625 	486.471 	198.001 	48136.3
2.635 	486.458 	197.953 	48132.3
2.645 	486.491 	197.951 	48144.7
2.655 	486.515 	197.936 	48150.5
2.665 	486.442 	197.863 	48125.4
2.675 	486.399 	197.786 	48113
2.685 	486.4 	197.753 	48114.6
2.695 	486.438 	197.738 	48126.4
2.705 	486.411 	197.675 	48113.5
2.715 	486.325 	197.576 	48087.7
2.725 	486.31 	197.505 	48083.1
2.735 	486.322 	197.469 	48087.5
2.745 	486.336 	197.414 	48090
2.755 	486.235 	197.3 	48056.5
2.765 	486.186 	197.182 	48041.6
2.775 	486.183 	197.107 	48038.8
2.785 	486.206 	197.045 	48046.3
2.795 	486.152 	196.919 	48024
2.805 	486.031 	196.742 	47986.7
2.815 	486.003 	196.605 	47978.1
2.825 	486.001 	196.51 	47980.6
2.835 	486.017 	196.38 	47979.8
2.845 	485.842 	196.15 	47916
2.855 	485.749 	195.918 	47888.9
2.865 	485.712 	195.761 	47882
2.875 	485.755 	195.616 	47892.4
2.885 	485.626 	195.334 	47835
2.895 	485.356 	194.956 	47760.6
2.905 	485.297 	194.665 	47741.3
2.915 	485.344 	194.456 	47747.3
2.925 	485.313 	194.104 	47725.6
2.935 	484.816 	193.528 	47582.1
2.945 	484.682 	193.02 	47526.8
2.955 	484.65 	192.641 	47507
2.965 	484.628 	192.065 	47506.5
2.975 	484.052 	190.895 	47311.3
2.985 	483.179 	188.932 	47013.6
2.995 	481.551 	185.478 	46521.6
3.005 	478.625 	176.898 	45530.1
3.015 	472.389 	146.588 	42741.8
3.025 	431.331 	79.7026 	31844.1
3.035 	409.084 	23.9416 	26986.9
3.045 	402.313 	6.17229 	25504.8
3.055 	400.558 	1.49664 	25121.9
3.065 	400.133 	0.356459 	25029
3.075 	400.031 	0.0844424 	25006.9
3.085 	400.007 	0.0199749 	25001.6
3.095 	400.002 	0.00472355 	25000.4
3.105 	400 	0.00111696 	25000.1
3.115 	400 	0.000264128 	25000
3.125 	400 	6.24583e-05 	25000
3.135 	400 	1.47692e-05 	25000
3.145 	400 	3.49233e-06 	25000
3.155 	400 	8.25779e-07 	25000
3.165 	400 	1.95258e-07 	25000
3.175 	400 	4.61701e-08 	25000
3.185 	400 	1.09182e-08 	25000
3.195 	400 	2.58202e-09 	25000
3.205 	400 	6.11878e-10 	25000
3.215 	400 	1.46684e-10 	25000
3.225 	400 	3.86351e-11 	25000
3.235 	400 	1.04491e-11 	25000
3.245 	400 	4.20077e-12 	25000
3.255 	400 	1.25915e-12 	25000
3.265 	400 	2.35474e-12 	25000
3.275 	400 	5.84529e-12 	25000
3.285 	400 	3.99373e-12 	25000
3.295 	400 	7.14475e-12 	25000
3.305 	400 	7.82983e-12 	25000
3.315 	400 	5.77103e-12 	25000
3.325 	400 	5.33213e-12 	25000
3.335 	400 	5.11986e-12 	25000
3.345 	400 	6.03829e-12 	25000
3.355 	400 	5.63632e-12 	25000
3.365 	400 	7.82881e-12 	25000
3.375 	400 	8.50233e-12 	25000
3.385 	400 	8.21854e-12 	25000
3.395 	400 	1.02537e-11 	25000
3.405 	400 	7.63139e-12 	25000
3.415 	400 	6.54631e-12 	25000
3.425 	400 	2.62894e-12 	25000
3.435 	400 	3.35448e-12 	25000
3.445 	400 	4.60939e-12 	25000
3.455 	400 	8.07414e-12 	25000
3.465 	400 	5.77899e-12 	25000
3.475 	400 	1.16869e-11 	25000
3.485 	400 	8.58331e-12 	25000
3.495 	400 	1.02078e-11 	25000
3.505 	400 	6.48916e-12 	25000
3.515 	400 	7.79896e-12 	25000
3.525 	400 	7.72874e-12 	25000
3.535 	400 	5.06352e-12 	25000
3.545 	400 	6.96198e-12 	25000
3.555 	400 	3.86734e-12 	25000
3.565 	400 	2.49996e-12 	25000
3.575 	400 	3.39544e-12 	25000
3.585 	400 	2.47207e-12 	25000
3.595 	400 	3.75323e-12 	25000
3.605 	400 	4.85549e-12 	25000
3.615 	400 	6.4603e-12 	25000
3.625 	400 	5.15256e-12 	25000
3.635 	400 	6.8348e-12 	25000
3.645 	400 	6.72094e-12 	25000
3.655 	400 	5.37828e-12 	25000
3.665 	400 	7.07453e-12 	25000
3.675 	400 	7.15248e-12 	25000
3.685 	400 	7.76523e-12 	25000
3.695 	400 	3.73729e-12 	25000
3.705 	400 	4.38833e-12 	25000
3.715 	400 	4.06794e-12 	25000
3.725 	400 	6.11165e-12 	25000
3.735 	400 	4.59869e-12 	25000
3.745 	400 	5.11675e-12 	25000
3.755 	400 	5.03377e-12 	25000
3.765 	400 	6.77203e-12 	25000
3.775 	400 	8.6181e-12 	25000
3.785 	400 	6.36222e-12 	25000
3.795 	400 	9.32703e-12 	25000
3.805 	400 	8.46818e-12 	25000
3.815 	400 	8.00873e-12 	25000
3.825 	400 	8.25256e-12 	25000
3.835 	400 	1.02516e-11 	25000
3.845 	400 	1.22088e-11 	25000
3.855 	400 	1.28533e-11 	25000
3.865 	400 	1.519e-11 	25000
3.875 	400 	1.31055e-11 	25000
3.885 	400 	1.63431e-11 	25000
3.895 	400 	1.72631e-11 	25000
3.905 	400 	1.84713e-11 	25000
3.915 	400 	2.06705e-11 	25000
3.925 	400 	2.12002e-11 	25000
3.935 	400 	2.24098e-11 	25000
3.945 	400 	2.20552e-11 	25000
3.955 	400 	2.39327e-11 	25000
3.965 	400 	2.26567e-11 	25000
3.975 	400 	2.46055e-11 	25000
3.985 	400 	2.29185e-11 	25000
3.995 	400 	2.44215e-11 	25000
4.005 	400 	2.55584e-11 	25000
4.015 	400 	2.38947e-11 	25000
4.025 	400 	2.29211e-11 	25000
4.035 	400 	2.49551e-11 	25000
4.045 	400 	2.29815e-11 	25000
4.055 	400 	2.40155e-11 	25000
4.065 	400 	2.20468e-11 	25000
4.075 	400 	2.25112e-11 	25000
4.085 	400 	2.05239e-11 	25000
4.095 	400 	2.10603e-11 	25000
4.105 	400 	2.15096e-11 	25000
4.115 	400 	2.22338e-11 	25000
4.125 	400 	2.0904e-11 	25000
4.135 	400 	2.16384e-11 	25000
4.145 	400 	2.02466e-11 	25000