/*--------------------------------*- C++ -*----------------------------------*\
| =========                 |                                                 |
| \\      /  F ield         | OpenFOAM: The Open Source CFD Toolbox           |
|  \\    /   O peration     | Version:  4.1                                   |
|   \\  /    A nd           | Web:      www.OpenFOAM.org                      |
|    \\/     M anipulation  |                                                 |
\*---------------------------------------------------------------------------*/
FoamFile
{
    version     2.0;
    format      ascii;
    class       volScalarField;
    location    "0.0012";
    object      mag(U);
}
// * * * * * * * * * * * * * * * * * * * * * * * * * * * * * * * * * * * * * //

dimensions      [0 1 -1 0 0 0 0];

internalField   nonuniform List<scalar> 
1000
(
5.76072e-12
5.89495e-12
1.01206e-11
7.4893e-12
8.092e-12
1.07797e-11
1.09669e-11
1.12532e-11
9.52884e-12
8.83339e-12
5.72231e-12
6.14284e-12
4.10953e-12
4.40021e-12
1.50743e-12
4.0036e-13
4.45617e-12
4.35185e-12
2.48096e-12
3.71327e-12
2.10061e-12
3.24151e-12
3.12802e-12
1.4684e-12
2.13664e-13
3.77774e-13
7.43141e-13
8.37438e-13
1.08547e-12
3.18766e-12
3.66892e-13
6.98506e-13
1.09823e-12
7.59708e-13
1.55978e-12
2.82115e-12
2.19033e-14
1.82732e-12
3.49756e-12
2.03143e-12
2.30319e-12
2.56861e-12
4.77731e-12
3.37314e-12
4.50745e-12
2.5359e-12
4.20003e-12
6.43189e-12
3.39772e-12
2.03356e-12
4.52932e-12
6.33376e-13
8.70483e-13
2.37597e-12
2.78024e-13
2.13836e-12
9.78016e-13
3.46951e-12
2.29443e-12
3.89126e-12
1.34858e-12
4.42138e-13
5.67505e-14
2.02227e-12
8.92273e-13
1.63753e-12
4.09961e-12
4.6122e-12
6.86197e-12
2.91965e-12
5.36804e-12
1.15757e-12
1.07165e-12
2.00253e-12
3.85393e-12
1.31748e-12
2.65195e-12
1.93883e-12
1.35313e-12
2.36015e-12
4.62153e-12
2.15227e-12
6.23561e-12
4.03289e-12
5.35159e-12
1.96999e-13
1.74131e-12
1.94432e-12
1.32915e-12
1.1917e-12
1.27021e-12
2.45226e-12
2.88254e-12
4.67913e-12
5.46907e-12
6.71358e-12
4.43904e-12
5.70744e-12
7.01499e-12
7.53251e-12
8.85011e-12
8.07522e-12
8.96551e-12
5.62895e-12
5.04343e-12
3.56426e-12
6.06198e-12
4.88144e-12
1.81571e-12
3.1694e-12
3.0162e-12
3.55306e-12
1.18789e-12
8.70418e-13
1.28584e-12
2.16045e-12
1.21392e-12
6.20254e-14
4.82401e-13
3.15129e-12
2.54706e-12
5.684e-12
5.89813e-12
6.18886e-12
1.93107e-12
1.802e-12
4.00901e-12
2.24182e-12
3.31076e-13
5.27161e-13
4.06844e-12
5.51103e-12
5.06391e-12
5.56996e-12
2.55347e-12
9.15885e-13
1.24264e-12
1.55211e-12
2.52231e-12
4.11406e-12
2.27644e-12
5.06165e-12
2.11861e-12
1.92303e-13
1.85666e-12
2.51863e-12
4.77794e-12
1.1038e-12
1.11963e-12
1.66923e-12
1.13535e-12
1.14877e-12
1.63219e-12
1.27652e-12
3.69385e-12
1.47954e-12
2.10837e-13
2.56702e-12
8.5096e-13
3.10212e-13
2.71125e-12
2.95585e-12
4.0071e-12
4.06784e-12
5.92788e-12
4.44999e-12
3.65007e-12
3.04791e-12
1.64452e-12
5.35544e-12
4.90516e-12
2.80657e-12
5.48769e-12
1.84198e-12
1.52106e-12
1.23037e-12
3.26343e-13
2.24848e-12
1.22768e-12
1.30149e-12
6.75824e-13
2.56008e-12
3.65104e-12
5.00542e-12
2.66173e-13
1.71434e-12
1.34548e-13
4.26127e-12
2.5867e-12
4.56997e-13
1.56059e-12
9.07887e-13
4.38025e-12
1.03266e-12
9.42824e-13
6.55541e-14
4.71333e-12
1.05391e-12
5.34648e-12
4.23754e-12
5.28426e-12
3.09042e-12
3.67562e-12
3.22815e-12
2.79543e-12
4.03379e-12
5.2763e-13
2.14526e-13
1.06846e-12
4.33234e-12
2.72561e-12
3.47769e-13
3.44756e-13
3.02102e-12
2.85579e-12
3.73874e-12
1.84422e-12
1.04804e-12
7.95492e-13
1.29764e-13
2.56492e-12
2.39599e-12
1.33686e-12
6.09042e-13
1.29725e-12
5.57078e-13
4.65648e-12
2.72423e-12
3.71661e-13
2.47348e-12
1.89759e-12
8.79215e-13
4.60293e-12
1.33203e-12
4.40373e-12
1.69155e-12
2.07144e-12
1.08673e-12
2.76296e-13
1.2693e-12
1.58247e-12
3.11448e-13
1.68468e-12
1.42485e-13
8.71661e-14
8.22433e-13
5.265e-13
3.14133e-12
4.44182e-12
1.64357e-12
2.91926e-12
5.13401e-12
4.03767e-12
5.27659e-12
2.30244e-12
1.92598e-12
7.65228e-13
2.71281e-12
4.43959e-13
5.02084e-13
1.61119e-12
4.97556e-14
2.31712e-12
7.55534e-13
4.70829e-14
6.84852e-13
1.47519e-12
2.39443e-12
2.84488e-13
1.12378e-12
1.05167e-12
5.00568e-13
2.15173e-12
3.70603e-12
4.90717e-12
5.63371e-12
3.58624e-12
4.66209e-12
4.45893e-12
2.05395e-12
1.80147e-12
4.43901e-13
1.73825e-12
4.80576e-13
3.06465e-12
3.17336e-12
1.33069e-12
2.72162e-13
1.88949e-13
2.58119e-17
1.84354e-14
1.89567e-12
3.14497e-12
1.68467e-12
4.9553e-13
2.18845e-12
1.69927e-12
3.11285e-12
1.55247e-12
1.12163e-12
2.99756e-12
2.03418e-12
1.76561e-17
1.10151e-12
6.3314e-13
1.01659e-12
4.21966e-13
4.18823e-13
9.7207e-14
2.29434e-13
2.28601e-16
1.77766e-12
2.00707e-12
7.31905e-13
1.60691e-12
3.31183e-13
1.66775e-17
3.4939e-18
1.42264e-17
1.70512e-16
8.78793e-13
2.26697e-21
8.78785e-13
7.48868e-17
2.22954e-13
1.83019e-23
2.22954e-13
7.97195e-17
1.10152e-12
6.3314e-13
1.01659e-12
4.21966e-13
4.18823e-13
9.7207e-14
2.29434e-13
2.28601e-16
1.77766e-12
2.00707e-12
7.31905e-13
1.60691e-12
3.31183e-13
1.69243e-17
6.43576e-18
5.30868e-13
6.00457e-14
8.40168e-13
1.13058e-12
1.35498e-12
2.62245e-12
2.72913e-12
1.53934e-12
3.51728e-13
1.12685e-12
1.85208e-13
2.20336e-12
2.21235e-13
2.46641e-12
3.94139e-13
5.15606e-13
2.35637e-12
2.86493e-13
1.1755e-12
2.81307e-12
3.79977e-13
8.13849e-13
8.23672e-13
4.1162e-13
1.54058e-12
1.09702e-12
1.68442e-12
1.87754e-12
1.58931e-12
3.39572e-12
1.85065e-12
5.06481e-15
1.74424e-18
1.43485e-17
1.71965e-16
8.88837e-13
7.68865e-28
8.88837e-13
1.71965e-16
1.43462e-17
2.06778e-18
2.94424e-17
8.92593e-13
1.78022e-12
4.03335e-13
6.85093e-15
1.75875e-12
2.94634e-13
1.59367e-12
4.52499e-13
1.14046e-12
1.25588e-12
1.7098e-12
1.44204e-12
3.42079e-12
1.52913e-12
7.8877e-13
8.54207e-14
1.20704e-18
1.17055e-20
1.0429e-24
1.19519e-27
7.38693e-31
1.15595e-34
4.52949e-37
1.40299e-34
6.52713e-33
3.22057e-28
8.36289e-27
3.02696e-21
3.48351e-20
2.34502e-14
8.30742e-15
1.87412e-13
3.95527e-12
1.34446e-11
5.12248e-11
1.69298e-10
5.44513e-10
1.70602e-09
5.25928e-09
1.59144e-08
4.72983e-08
1.38039e-07
3.95458e-07
1.11159e-06
3.06424e-06
8.2795e-06
2.1915e-05
5.67894e-05
0.000143978
0.000356876
0.00086416
0.00204249
0.00470776
0.0105709
0.0230972
0.0490471
0.10108
0.201848
0.389856
0.726759
1.30442
2.24736
3.70074
5.77845
8.49589
11.8021
15.6445
19.9614
24.6764
29.7119
34.9985
40.4783
46.1061
51.8467
57.6728
63.5631
69.5003
75.4701
81.4599
87.4586
93.4557
99.4411
105.405
111.336
117.225
123.058
128.824
134.509
140.097
145.571
150.911
156.1
161.103
165.915
170.481
174.797
178.819
182.514
185.877
188.847
191.422
193.598
195.354
196.722
197.714
198.373
198.783
198.983
199.032
199.036
199.044
199.038
199.005
198.939
198.852
198.762
198.685
198.632
198.602
198.585
198.577
198.575
198.577
198.577
198.574
198.572
198.57
198.57
198.569
198.567
198.565
198.563
198.568
198.595
198.666
198.85
199.125
199.088
198.734
198.522
198.461
198.438
198.399
198.379
198.402
198.424
198.392
198.335
198.321
198.342
198.334
198.265
198.198
198.182
198.178
198.114
198.01
197.941
197.911
197.856
197.726
197.584
197.478
197.393
197.253
197.02
196.794
196.618
196.446
196.136
195.702
195.285
194.936
194.581
193.822
192.507
190.617
187.146
178.568
146.662
77.4979
22.9871
5.88772
1.4168
0.334415
0.078524
0.0184147
0.004317
0.00101188
0.000237122
5.5551e-05
1.30096e-05
3.04548e-06
7.12585e-07
1.66631e-07
3.89376e-08
9.08998e-09
2.11994e-09
4.94355e-10
1.15533e-10
2.75028e-11
5.66841e-12
1.49298e-12
9.79234e-13
1.10181e-13
5.88273e-13
1.29216e-12
4.46596e-13
2.07897e-12
8.99833e-13
1.48946e-12
1.90072e-13
1.16631e-12
9.15361e-13
1.40102e-12
1.42675e-12
2.20213e-12
2.79215e-12
9.92221e-13
3.30607e-12
3.04235e-13
1.26216e-12
5.49077e-13
5.54279e-13
2.84836e-12
7.93199e-13
3.20906e-13
4.01841e-15
5.49348e-13
3.32205e-13
2.92948e-12
1.54912e-12
1.35391e-13
2.58334e-13
9.02339e-14
8.63853e-14
1.82824e-12
3.04924e-12
9.31044e-13
6.96034e-13
2.02012e-13
9.76385e-13
1.90136e-14
2.91415e-13
1.39821e-12
9.62375e-13
5.85114e-13
2.09323e-12
1.98574e-12
1.65509e-12
1.73358e-12
1.06216e-12
1.45608e-13
4.25856e-13
7.00808e-13
7.60418e-13
5.28309e-13
1.70757e-12
5.8529e-13
1.31232e-12
2.31322e-13
1.82746e-12
1.13539e-12
1.96015e-12
1.47908e-12
2.88396e-12
1.24513e-13
8.42898e-13
4.5714e-13
7.53219e-13
2.26405e-12
3.4746e-12
9.86483e-13
1.50809e-12
1.39504e-12
1.13479e-12
1.24691e-12
1.10288e-12
1.02468e-12
3.42239e-12
1.66923e-12
3.05327e-12
3.57513e-14
4.07516e-13
1.3903e-12
5.69518e-13
1.25605e-13
3.27428e-12
2.36612e-13
6.30324e-13
1.23254e-13
1.34748e-14
1.74881e-12
4.40759e-13
1.86052e-12
3.11566e-12
8.60429e-13
7.05681e-13
2.02008e-13
1.12813e-12
1.61397e-12
7.36711e-13
1.18746e-13
8.46172e-13
9.15789e-13
2.139e-12
6.65914e-13
1.23057e-12
3.52358e-13
1.53262e-12
1.38836e-13
1.72215e-12
8.24294e-13
1.81226e-12
1.36054e-12
3.46585e-13
1.55427e-12
2.25322e-13
2.00998e-12
3.80214e-12
1.48035e-12
3.31232e-13
2.1234e-13
2.74389e-13
4.20745e-14
1.4401e-12
4.07518e-17
3.24353e-18
1.51931e-18
1.66969e-15
1.67911e-15
1.82349e-13
8.73434e-14
3.34291e-12
1.0221e-12
2.78683e-13
1.60415e-12
2.52115e-12
4.88236e-14
6.94198e-13
1.73583e-12
5.04859e-13
9.07292e-13
3.62835e-15
7.86014e-13
4.18517e-13
2.32517e-12
8.24517e-13
9.60278e-13
3.21118e-16
2.77763e-17
1.57274e-20
1.32057e-19
2.22691e-18
4.69375e-14
1.87547e-12
1.63957e-12
2.29287e-13
5.13985e-13
1.70765e-12
9.3171e-13
1.10949e-13
8.68489e-13
1.57299e-12
5.84706e-13
2.99789e-12
1.64602e-12
2.02183e-12
2.8593e-12
3.67068e-13
1.92607e-13
2.17612e-12
8.2455e-13
9.60296e-13
3.22577e-16
2.77765e-17
1.57342e-20
1.38242e-19
1.51967e-18
1.66937e-15
1.66939e-15
1.81715e-18
3.0146e-14
1.55804e-13
1.15089e-12
1.36617e-12
1.93224e-12
8.23624e-13
7.42232e-13
1.37771e-12
1.35999e-12
4.00909e-13
2.47306e-12
1.86383e-12
6.9565e-13
1.50642e-13
3.16898e-12
9.9342e-13
1.00954e-12
2.42982e-13
3.6469e-13
1.4631e-12
4.8645e-13
1.43667e-14
4.64297e-13
1.03931e-12
3.16094e-12
1.58276e-12
3.58452e-13
1.2396e-12
1.42143e-12
1.97244e-12
1.13677e-12
5.21175e-13
2.77434e-12
1.06356e-12
1.28172e-12
1.39793e-12
1.4235e-12
6.40107e-13
2.22669e-12
8.2828e-13
1.39025e-12
3.2231e-12
1.10891e-12
2.86939e-14
1.71445e-13
1.48159e-12
3.54068e-16
1.04719e-12
3.08805e-13
4.25268e-14
9.47671e-13
1.1884e-12
4.24707e-13
1.55552e-12
1.12595e-15
1.65734e-12
2.2109e-12
3.04335e-13
1.88653e-12
2.29902e-12
7.06902e-13
3.13067e-13
6.66557e-13
2.27923e-12
4.8394e-12
1.97699e-12
3.57814e-12
2.20035e-12
2.99468e-14
3.5358e-12
3.22233e-12
3.43413e-12
2.04149e-12
2.31709e-13
2.48719e-12
8.27264e-13
3.25337e-12
6.15325e-13
1.49686e-12
2.22226e-13
1.87336e-12
2.23265e-12
2.97118e-14
1.85135e-12
2.21529e-12
6.91829e-13
2.46083e-13
6.66557e-13
2.27923e-12
4.8394e-12
1.97699e-12
3.57814e-12
2.20035e-12
2.99468e-14
3.5358e-12
3.22233e-12
3.43413e-12
2.04149e-12
2.31709e-13
2.48719e-12
8.28938e-13
3.23662e-12
3.99317e-13
1.99249e-12
9.09795e-13
3.09315e-13
2.68305e-12
5.05921e-13
4.20232e-12
1.93755e-12
1.25957e-12
4.58484e-12
3.57872e-12
6.69525e-12
6.90096e-12
6.67889e-12
2.63945e-12
3.98219e-12
1.4592e-12
1.69734e-14
2.95778e-13
2.02679e-12
4.16594e-12
7.71437e-13
2.71036e-12
9.28061e-14
1.1064e-12
4.0394e-13
2.29927e-12
4.26969e-13
7.34719e-13
1.61142e-12
1.87588e-12
1.98111e-12
4.31651e-12
6.08286e-13
2.12038e-12
2.08036e-13
1.91671e-12
1.95369e-12
5.67022e-12
4.24296e-12
4.58085e-12
4.24374e-12
2.6857e-12
4.34532e-12
6.07146e-13
4.83289e-12
1.65563e-12
2.15141e-12
9.73482e-13
1.67999e-12
1.87716e-13
1.09326e-12
1.35263e-12
2.55909e-12
2.11613e-12
1.93376e-13
2.37399e-12
6.17425e-13
2.67739e-12
6.21405e-13
1.62387e-13
2.81324e-13
1.33854e-17
1.02338e-16
1.44664e-12
1.51141e-14
2.32586e-13
6.29352e-13
7.85596e-13
1.15121e-13
7.26143e-14
1.34795e-13
6.82393e-13
2.6336e-13
5.08785e-15
2.99246e-13
2.32452e-16
1.94415e-17
1.76309e-20
6.03584e-22
1.39042e-19
1.65859e-18
1.67089e-15
1.61254e-21
1.67089e-15
1.6574e-18
1.38129e-19
8.51755e-18
1.01908e-16
1.44664e-12
1.51141e-14
2.32586e-13
6.29352e-13
7.85596e-13
1.15121e-13
7.26143e-14
1.34795e-13
6.82393e-13
2.6336e-13
5.08785e-15
2.99246e-13
2.32452e-16
1.94415e-17
1.76309e-20
6.03584e-22
1.39042e-19
1.65859e-18
1.67089e-15
1.61219e-21
1.67089e-15
1.84817e-18
3.12818e-19
5.35522e-14
1.6243e-12
4.30571e-13
3.16276e-12
3.46885e-12
5.06859e-13
1.91134e-13
4.31004e-12
3.83919e-12
2.39318e-12
3.21869e-12
4.93944e-12
6.53665e-12
7.55937e-12
6.58502e-12
9.81199e-12
8.50753e-12
1.17221e-11
1.12183e-11
)
;

boundaryField
{
    sides
    {
        type            calculated;
        value           nonuniform List<scalar> 2(1.12183e-11 5.76072e-12);
    }
    empty
    {
        type            empty;
    }
}


// ************************************************************************* //
