/*--------------------------------*- C++ -*----------------------------------*\
| =========                 |                                                 |
| \\      /  F ield         | OpenFOAM: The Open Source CFD Toolbox           |
|  \\    /   O peration     | Version:  4.1                                   |
|   \\  /    A nd           | Web:      www.OpenFOAM.org                      |
|    \\/     M anipulation  |                                                 |
\*---------------------------------------------------------------------------*/
FoamFile
{
    version     2.0;
    format      ascii;
    class       surfaceScalarField;
    location    "0.0012";
    object      phi;
}
// * * * * * * * * * * * * * * * * * * * * * * * * * * * * * * * * * * * * * //

dimensions      [1 0 -1 0 0 0 0];

internalField   nonuniform List<scalar> 
999
(
-1.96891e-11
-2.73488e-11
-3.19176e-11
-2.57643e-11
-3.44755e-11
-3.61524e-11
-3.95417e-11
-3.53921e-11
-3.30402e-11
-2.50679e-11
-2.06839e-11
-1.80478e-11
-1.40972e-11
-1.09637e-11
-3.08376e-12
-8.01492e-12
-1.62146e-11
-1.166e-11
-1.05445e-11
-3.36087e-12
-1.61293e-12
-2.91323e-13
2.80664e-12
-1.80478e-12
-5.25802e-13
9.45022e-13
2.3519e-12
3.83693e-12
6.99885e-12
5.76961e-12
1.88294e-12
-6.11067e-13
-4.05009e-13
3.28981e-12
8.81073e-12
4.0572e-12
-2.33058e-12
-1.06937e-11
-1.01181e-11
-7.21911e-12
-7.40386e-12
-1.36922e-11
-1.36211e-11
-1.45803e-11
-1.17737e-11
-1.112e-11
-1.93694e-11
-1.69109e-11
-8.73257e-12
-1.24203e-11
-8.39151e-12
-2.32347e-12
2.21689e-12
4.05009e-12
5.27933e-12
1.59872e-12
-8.75389e-12
-9.13047e-12
-1.05373e-11
-8.49099e-12
-1.93978e-12
1.12976e-12
-3.97193e-12
-1.58451e-12
4.01457e-12
9.25127e-12
1.48646e-11
2.03855e-11
1.64491e-11
1.54046e-11
1.06795e-11
3.83693e-12
-1.60583e-12
3.21165e-12
9.63496e-12
5.83356e-12
1.82609e-12
-6.57252e-12
-5.90461e-12
-1.33227e-11
-1.0985e-11
-1.38911e-11
-1.90568e-11
-1.54898e-11
-9.4218e-12
-2.56506e-12
-6.06093e-12
-6.24567e-12
-1.35003e-13
-2.20268e-13
1.9611e-12
8.69704e-12
1.43032e-11
1.65414e-11
2.19842e-11
1.83746e-11
1.82467e-11
2.30429e-11
2.46629e-11
2.8173e-11
2.89333e-11
3.12284e-11
2.4464e-11
1.81757e-11
1.58096e-11
1.59091e-11
1.98028e-11
1.22782e-11
7.55307e-12
1.09495e-11
1.26832e-11
7.48912e-12
3.41771e-12
-5.04485e-13
-6.37357e-12
-5.66303e-12
-1.98952e-12
1.15818e-12
5.54223e-12
1.02602e-11
1.55325e-11
1.93054e-11
2.07478e-11
1.44951e-11
6.55831e-12
1.07008e-11
9.96181e-12
3.73745e-12
3.33955e-13
8.40572e-12
1.68114e-11
1.84386e-11
1.79838e-11
1.3813e-11
6.48726e-12
-8.10019e-13
-4.79616e-12
-6.49436e-12
-1.20437e-11
-1.10774e-11
-1.33866e-11
-1.20579e-11
-4.0572e-12
2.76401e-12
7.97939e-12
1.23919e-11
1.04663e-11
3.75167e-12
-1.07292e-12
-4.17799e-12
-4.66116e-12
8.2423e-13
5.62039e-12
8.16414e-12
4.34142e-12
-2.72138e-12
5.58487e-12
5.44986e-12
7.60281e-13
-4.83169e-12
-9.62785e-12
-1.31664e-11
-1.27329e-11
-1.87228e-11
-1.84386e-11
-1.36993e-11
-1.09353e-11
-8.92442e-12
-1.13545e-11
-1.72662e-11
-1.46088e-11
-1.34293e-11
-1.29745e-11
-6.17462e-12
-4.49774e-12
-2.7498e-12
3.26139e-12
5.82645e-12
-2.34479e-13
-2.94165e-12
3.18323e-12
1.04521e-11
1.48646e-11
9.35785e-12
3.83693e-12
2.96296e-12
7.17648e-12
3.34666e-12
-4.07852e-12
3.18323e-12
4.78195e-12
8.63309e-12
6.5441e-12
-2.84217e-13
1.62004e-12
8.10729e-12
1.03313e-11
1.06581e-11
1.63709e-11
1.71454e-11
1.52909e-11
1.18092e-11
1.14255e-11
1.00755e-11
1.27898e-11
7.17648e-12
1.61293e-12
1.94689e-12
1.01821e-11
1.11768e-11
4.99512e-12
-6.39488e-14
5.05196e-12
1.14611e-11
1.18092e-11
8.5052e-12
6.10356e-12
2.70006e-13
-1.26477e-12
4.448e-12
7.68807e-12
7.51754e-12
2.74269e-12
-8.73968e-13
-1.48503e-12
-7.87281e-12
-2.75691e-12
4.67537e-12
5.82645e-12
6.75016e-12
4.61853e-12
1.01323e-11
9.19442e-12
1.17879e-11
9.05231e-12
7.8586e-12
1.16529e-12
-9.52127e-13
-2.11742e-12
5.11591e-13
3.60245e-12
-2.66454e-12
-2.59348e-12
1.35003e-13
1.14397e-12
7.74492e-13
-7.3257e-12
-1.22853e-11
-1.10916e-11
-7.33991e-12
-1.44169e-11
-1.63922e-11
-1.7323e-11
-1.15747e-11
-8.85336e-12
-3.84404e-12
-6.14619e-12
-6.13198e-12
-1.37135e-12
-3.50298e-12
-3.35376e-12
-3.21165e-12
-6.46594e-12
-7.67386e-13
-1.63425e-12
-3.51008e-12
1.58451e-12
3.96483e-12
1.32871e-12
3.48166e-12
3.20455e-12
4.02167e-12
1.01323e-11
1.59801e-11
1.77565e-11
1.54969e-11
1.48574e-11
1.50706e-11
1.25269e-11
5.69855e-12
4.39115e-12
3.54561e-12
2.99138e-12
3.31823e-12
1.31024e-11
6.57963e-12
3.2685e-12
9.166e-13
2.4869e-13
-2.13163e-14
-3.02691e-12
-9.44311e-12
-9.32232e-12
-3.1406e-12
3.5314e-12
5.7554e-13
2.05347e-12
9.41469e-12
3.81561e-12
8.32046e-12
1.29319e-12
-3.21876e-12
1.81899e-12
2.79243e-12
3.32534e-12
7.31859e-13
-1.12976e-12
-6.32383e-13
-2.98428e-13
-4.1922e-13
-3.17613e-12
3.48166e-13
2.39453e-12
-4.28457e-12
-2.089e-12
5.40012e-13
0
0
0
1.44951e-12
1.62714e-12
-1.62714e-12
-1.44951e-12
-3.48166e-13
-4.54747e-13
4.61853e-13
3.48166e-13
1.81899e-12
2.79243e-12
3.32534e-12
7.31859e-13
-1.12976e-12
-6.32383e-13
-2.98428e-13
-4.1922e-13
-3.17613e-12
3.48166e-13
2.39453e-12
-4.28457e-12
-2.089e-12
5.40012e-13
0
8.10019e-13
1.0516e-12
1.10845e-12
3.36087e-12
4.72511e-12
6.38067e-12
9.89786e-12
7.28306e-12
2.11031e-12
-2.70006e-12
-1.50635e-12
-3.78009e-12
-3.46034e-12
-3.2756e-12
-5.67724e-12
-1.48503e-12
3.0056e-12
4.17799e-12
-3.0056e-12
2.63611e-12
4.68248e-12
7.81597e-13
-7.10543e-15
-9.23706e-13
3.87246e-12
4.02878e-12
-8.31335e-13
-6.56541e-12
-5.64171e-12
-8.19966e-12
-9.9547e-12
-2.89901e-12
-1.42109e-14
0
0
1.44951e-12
1.46372e-12
-1.52056e-12
-1.46372e-12
0
0
0
1.50635e-12
4.76774e-12
3.91509e-12
5.96856e-13
3.19034e-12
2.69296e-12
2.0961e-12
3.93641e-12
2.43716e-12
4.61142e-12
-9.52127e-13
-5.64881e-12
-8.16414e-12
-8.83205e-12
-3.85825e-12
-1.69109e-12
-1.20792e-13
0
0
0
0
0
0
0
0
0
0
0
0
-2.84217e-14
-4.26326e-14
-6.11067e-13
5.91882e-12
2.68869e-11
1.0094e-10
3.45729e-10
1.12404e-09
3.55076e-09
1.10166e-08
3.35694e-08
1.0046e-07
2.95261e-07
8.52013e-07
2.41285e-06
6.70281e-06
1.82559e-05
4.87224e-05
0.000127344
0.000325746
0.000814949
0.00199256
0.00475745
0.0110824
0.0251636
0.0556318
0.11961
0.249766
0.505796
0.991655
1.8786
3.43095
6.02481
10.1392
16.2786
24.688
35.0368
47.0414
60.4471
74.9241
90.1353
105.779
121.607
137.43
153.106
168.531
183.629
198.347
212.644
226.491
239.867
252.756
265.147
277.033
288.406
299.264
309.604
319.424
328.723
337.5
345.753
353.49
360.683
367.404
373.499
379.235
384.261
388.853
393.088
396.412
399.705
402.297
404.196
406.1
407.457
408.203
408.859
409.406
409.573
409.513
409.468
409.498
409.53
409.453
409.362
409.302
409.231
409.106
408.997
408.938
408.897
408.815
408.754
408.724
408.677
408.59
408.517
408.468
408.405
408.245
407.959
407.805
407.781
408.008
408.71
408.973
408.731
404.595
384.277
347.247
319.309
300.559
288.071
280.308
275.807
273.871
273.33
273.09
272.558
272.585
273.085
273.396
273.156
272.766
272.793
273.277
273.377
272.695
272.612
272.786
273.196
272.886
272.323
272.293
272.459
272.841
271.914
271.456
271.488
271.844
272.13
270.007
269.701
269.816
270.644
269.432
265.931
264.424
262.099
257.571
237.625
137.724
42.7386
11.4522
2.79568
0.66238
0.155677
0.0365149
0.00856095
0.00200682
0.000470349
0.000110211
2.58165e-05
6.04521e-06
1.41494e-06
3.31005e-07
7.73847e-08
1.80777e-08
4.21888e-09
9.83684e-10
2.29543e-10
5.37455e-11
1.255e-11
2.74092e-12
1.54543e-13
-3.41061e-13
2.6823e-13
7.44294e-13
9.166e-13
9.11271e-13
1.52767e-12
-3.51719e-13
-5.80869e-13
-3.14415e-13
-1.77636e-13
9.43245e-13
0
-1.58096e-12
-2.3217e-12
-1.78879e-12
-1.62004e-12
-1.87583e-12
-4.9738e-13
-4.54747e-13
2.4869e-14
-1.59872e-12
-8.34888e-13
2.66454e-13
-2.04281e-13
-1.95399e-13
-3.48166e-13
1.04627e-12
1.90603e-12
8.01137e-13
-6.21725e-14
-9.41469e-14
1.06581e-13
7.72715e-13
2.03748e-12
1.79945e-12
7.37188e-13
1.59872e-13
5.06262e-13
2.80664e-13
2.30926e-13
-6.94556e-13
-7.74492e-13
-8.63309e-13
-1.04095e-12
-1.64135e-12
-1.77991e-12
-1.32871e-12
-1.14397e-12
-4.88498e-13
-9.59233e-14
-4.63629e-13
4.61853e-14
5.86198e-14
6.78568e-13
8.3844e-13
9.29035e-13
5.02709e-13
6.2883e-13
3.81917e-13
-1.59694e-12
-1.24345e-13
-7.95808e-13
-1.19371e-12
-3.62377e-13
-2.23821e-13
-9.41469e-14
-1.41043e-12
5.82645e-13
1.84919e-12
-2.11386e-13
-8.88178e-14
1.29496e-12
9.27258e-13
3.19744e-14
-7.76268e-13
-2.12452e-12
-2.02327e-12
-2.25953e-12
-1.24167e-12
1.43885e-13
8.47322e-13
8.86402e-13
2.36255e-13
1.24878e-12
1.64491e-12
3.4639e-13
2.00728e-13
-4.08562e-14
-7.95808e-13
-9.04166e-13
-1.1191e-12
-1.91136e-12
-1.1795e-12
7.86926e-13
4.49418e-13
4.68958e-13
-1.45661e-13
-4.51195e-13
2.23821e-13
-3.39284e-13
1.77636e-15
1.51168e-12
1.12799e-12
8.61533e-13
7.22977e-13
7.37188e-13
8.08242e-13
7.62057e-13
1.13332e-12
-4.24549e-13
-2.18492e-13
4.99156e-13
4.61853e-13
6.60805e-13
7.03437e-13
2.43183e-12
2.41229e-12
8.15348e-13
3.55271e-14
-2.30926e-13
-9.05942e-14
-7.86926e-13
-5.56e-13
0
-1.77636e-15
3.55271e-15
0
6.21725e-14
1.40332e-13
1.39444e-12
2.06768e-12
2.8777e-13
-7.69163e-13
-2.00195e-12
-9.00613e-13
-3.8014e-13
-9.34364e-13
-6.05738e-13
-1.47438e-13
-4.3876e-13
3.606e-13
1.75859e-13
7.78044e-13
1.43885e-12
-7.4607e-14
-3.92575e-13
0
0
0
-1.77636e-15
-1.24345e-14
-7.79821e-13
-1.71774e-12
-7.30083e-13
1.5099e-13
-4.40536e-13
-4.72511e-13
5.02709e-13
-5.56e-13
-8.81073e-13
-5.77316e-13
1.73372e-12
1.98241e-12
1.67688e-12
-3.74811e-13
-1.04805e-12
8.17124e-14
7.92255e-13
1.38733e-12
-7.4607e-14
-3.92575e-13
0
0
0
-1.77636e-15
3.55271e-15
0
-5.32907e-15
-8.88178e-15
-6.03961e-14
-6.11067e-13
-1.17417e-12
-1.39622e-12
-1.18838e-12
-5.66658e-13
2.0961e-13
-1.24345e-14
-3.30402e-13
-8.26006e-13
-2.00728e-12
-1.24345e-12
-1.63425e-13
1.27365e-12
1.11378e-12
-1.77636e-14
6.30607e-13
-7.4607e-14
5.52447e-13
7.21201e-13
3.05533e-13
-2.45137e-13
2.22045e-13
1.90425e-12
1.98774e-12
9.57456e-13
-4.40536e-13
-1.22213e-12
-1.52234e-12
-1.23634e-12
-8.11795e-13
1.01785e-12
9.166e-13
1.77636e-14
3.37508e-14
-1.47793e-12
-9.73444e-13
8.3844e-13
1.13864e-12
-1.58096e-13
6.80345e-13
1.78879e-12
5.82645e-13
6.39488e-14
-5.29354e-13
-6.98108e-13
4.99156e-13
5.34683e-13
1.9007e-13
-4.42313e-13
9.41469e-14
3.9968e-13
4.13891e-13
7.63833e-13
6.66134e-13
-1.95399e-13
-1.32161e-12
-7.37188e-13
-1.8634e-12
-1.48859e-12
-4.10338e-13
-4.68958e-13
-1.17772e-12
-2.81197e-12
-3.43192e-12
-2.03748e-12
-2.8173e-12
-9.34364e-13
1.43707e-12
3.09797e-12
3.04823e-12
2.28262e-12
6.64357e-13
1.23634e-12
1.18661e-12
1.79412e-12
1.97176e-12
7.49623e-13
8.29559e-13
1.02496e-12
-2.00728e-13
-1.12799e-12
-6.53699e-13
-1.67333e-12
-1.48148e-12
-3.51719e-13
-4.52971e-13
-1.17772e-12
-2.81197e-12
-3.43192e-12
-2.03748e-12
-2.8173e-12
-9.34364e-13
1.43707e-12
3.09797e-12
3.04823e-12
2.28262e-12
6.64357e-13
1.23634e-12
1.18661e-12
1.79057e-12
1.88649e-12
8.10019e-13
6.85674e-13
-4.22773e-13
-8.40217e-13
-1.10312e-12
-1.41753e-12
-2.80842e-12
-1.58806e-12
-2.39808e-12
-3.61489e-12
-4.28102e-12
-6.06803e-12
-6.0183e-12
-4.09983e-12
-2.61835e-12
-2.66986e-12
-5.70211e-13
-1.5099e-13
8.63309e-13
2.49401e-12
2.35367e-12
1.33404e-12
1.22924e-12
5.15143e-13
2.27374e-13
-1.1795e-12
-1.06049e-12
1.54543e-13
-4.86722e-13
-1.38556e-12
-1.58629e-12
-2.85816e-12
-1.67866e-12
-5.41789e-13
-1.19549e-12
8.7752e-13
1.55964e-12
3.3431e-12
4.53149e-12
3.65219e-12
3.8014e-12
2.87592e-12
3.34666e-12
1.93623e-12
2.50111e-12
2.85638e-12
1.70886e-12
4.90274e-13
2.55795e-13
9.68114e-13
-5.00933e-13
1.47438e-13
1.61471e-12
2.20979e-12
8.36664e-13
1.3376e-12
6.50147e-13
8.9706e-13
1.58096e-12
1.56319e-13
6.92779e-14
1.15463e-13
0
5.73763e-13
7.35412e-13
-1.29674e-13
2.0961e-13
-1.43885e-13
-1.65201e-13
-7.28306e-14
1.1191e-13
-3.30402e-13
-3.67706e-13
-9.9476e-14
-1.54543e-13
-1.06581e-13
-3.55271e-15
1.77636e-15
0
0
0
0
1.77636e-15
-3.55271e-15
3.55271e-15
-5.32907e-15
1.77636e-15
0
5.73763e-13
7.35412e-13
-1.29674e-13
2.0961e-13
-1.43885e-13
-1.65201e-13
-7.28306e-14
1.1191e-13
-3.30402e-13
-3.67706e-13
-9.9476e-14
-1.54543e-13
-1.06581e-13
-3.55271e-15
1.77636e-15
0
0
0
0
1.77636e-15
-3.55271e-15
3.55271e-15
-5.32907e-15
-1.95399e-14
5.87974e-13
1.06404e-12
1.46194e-12
2.78888e-12
1.79057e-12
2.46914e-13
2.1938e-12
3.31646e-12
2.75335e-12
2.49223e-12
3.45501e-12
5.13367e-12
6.116e-12
6.32916e-12
6.73772e-12
8.21565e-12
8.72902e-12
1.00542e-11
)
;

boundaryField
{
    sides
    {
        type            calculated;
        value           nonuniform List<scalar> 2(9.74108e-12 2.0041e-11);
    }
    empty
    {
        type            empty;
        value           nonuniform 0();
    }
}


// ************************************************************************* //
