/*--------------------------------*- C++ -*----------------------------------*\
| =========                 |                                                 |
| \\      /  F ield         | OpenFOAM: The Open Source CFD Toolbox           |
|  \\    /   O peration     | Version:  4.1                                   |
|   \\  /    A nd           | Web:      www.OpenFOAM.org                      |
|    \\/     M anipulation  |                                                 |
\*---------------------------------------------------------------------------*/
FoamFile
{
    version     2.0;
    format      ascii;
    class       volScalarField;
    location    "0.004";
    object      mag(U);
}
// * * * * * * * * * * * * * * * * * * * * * * * * * * * * * * * * * * * * * //

dimensions      [0 1 -1 0 0 0 0];

internalField   nonuniform List<scalar> 
1000
(
1.30692e-11
1.31353e-11
1.5829e-11
1.58813e-11
1.55285e-11
1.68009e-11
1.87042e-11
2.07152e-11
1.85261e-11
1.77838e-11
1.34698e-11
1.45212e-11
1.48418e-11
1.75389e-11
1.51609e-11
1.66644e-11
1.55993e-11
1.67078e-11
1.36352e-11
1.63973e-11
1.1582e-11
1.36813e-11
1.37449e-11
1.42818e-11
1.0635e-11
1.39085e-11
1.01985e-11
9.96341e-12
6.38103e-12
3.84141e-12
4.65306e-12
5.84449e-12
8.86198e-12
7.20048e-12
8.89994e-12
2.86754e-12
6.00731e-12
4.98745e-12
1.04261e-11
7.09911e-12
9.73082e-12
6.3993e-12
8.29876e-12
5.94262e-12
9.86974e-12
6.85556e-12
9.90826e-12
1.02726e-11
8.84856e-12
7.34402e-12
1.13657e-11
8.23672e-12
8.62073e-12
6.81001e-12
9.25685e-12
1.20145e-11
1.21699e-11
1.3963e-11
9.5392e-12
1.13225e-11
8.21036e-12
1.12755e-11
7.43678e-12
7.19762e-12
2.87467e-12
3.83514e-12
2.38777e-12
5.67057e-12
3.58272e-12
5.99717e-12
1.45496e-12
7.20112e-12
7.09256e-12
1.03295e-11
5.36881e-12
1.0024e-11
5.51956e-12
7.51941e-12
7.31136e-12
6.36315e-12
7.26464e-12
8.67528e-12
7.60895e-12
6.39137e-12
7.0595e-12
5.74023e-12
5.39034e-12
2.2976e-12
2.90752e-12
1.66432e-12
2.11951e-13
6.88496e-12
3.66436e-12
6.7713e-12
3.06707e-12
6.94864e-12
6.49912e-12
9.87375e-12
6.32041e-12
8.2517e-12
7.88129e-12
7.86369e-12
1.13129e-11
8.02576e-12
9.48807e-12
7.69647e-12
7.057e-12
8.57512e-12
9.20472e-12
1.05411e-11
1.04841e-11
1.1382e-11
1.25775e-11
9.54601e-12
8.06823e-12
7.72532e-12
7.83651e-12
1.04915e-11
1.15003e-11
1.26408e-11
1.37858e-11
1.43173e-11
1.38857e-11
1.65752e-11
1.34597e-11
1.42088e-11
1.34484e-11
1.48749e-11
1.10782e-11
1.0411e-11
7.7123e-12
6.17364e-12
7.00818e-12
6.65371e-12
8.22846e-12
9.50931e-12
9.17033e-12
7.86129e-12
6.95078e-12
4.89431e-12
5.19895e-12
7.1312e-12
6.01572e-12
6.85603e-12
7.24069e-12
1.01041e-11
9.04594e-12
7.29476e-12
1.03369e-11
9.08651e-12
9.69249e-12
7.8852e-12
1.18669e-11
8.07417e-12
8.89108e-12
6.61904e-12
7.71922e-12
7.46573e-12
8.04465e-12
9.2791e-12
8.44211e-12
6.80119e-12
6.97013e-12
5.20753e-12
3.95011e-12
6.61197e-12
7.63524e-12
7.85114e-12
8.22377e-12
8.10526e-12
9.48124e-12
1.05866e-11
1.05781e-11
1.3547e-11
1.25427e-11
1.44247e-11
1.17562e-11
1.30518e-11
9.79641e-12
1.22566e-11
1.0289e-11
1.05791e-11
8.73046e-12
8.56001e-12
7.60205e-12
7.53288e-12
3.7288e-12
5.56411e-12
5.52339e-12
5.74859e-12
9.4616e-12
5.61075e-12
6.4842e-12
4.54199e-12
8.93866e-12
8.88775e-12
1.12216e-11
6.12224e-12
7.95079e-12
3.78769e-12
5.40876e-12
7.19886e-14
5.48485e-12
4.16734e-12
5.55776e-12
4.01193e-12
4.83852e-12
6.12932e-12
8.10313e-12
8.73481e-12
7.8348e-12
6.6189e-12
4.87e-12
7.08276e-12
7.20201e-12
1.07018e-11
7.33553e-12
1.2557e-11
6.26019e-12
1.09586e-11
9.39375e-12
1.37354e-11
1.04448e-11
1.4401e-11
7.77145e-12
1.16891e-11
5.37987e-12
8.56079e-12
8.54333e-12
1.14383e-11
9.78414e-12
1.03584e-11
1.18788e-11
9.65086e-12
1.14506e-11
8.51571e-12
9.4086e-12
4.11577e-12
5.97615e-12
1.24293e-12
3.63748e-12
5.3718e-13
4.3007e-12
1.13524e-12
5.72899e-12
4.23144e-12
5.64422e-12
8.28874e-13
5.7253e-12
6.90971e-12
8.41005e-12
6.33215e-12
8.42652e-12
4.88969e-12
7.72123e-12
8.79519e-12
9.32388e-12
5.61791e-12
5.51969e-12
4.23396e-12
7.1307e-12
5.31159e-12
4.48673e-12
4.02607e-12
5.37296e-12
4.14886e-12
2.08186e-12
3.76216e-12
1.28132e-12
1.38771e-12
1.08779e-12
5.10887e-12
5.60174e-12
4.6355e-12
4.95175e-12
9.11938e-12
7.30053e-12
1.1094e-11
7.64296e-12
1.1223e-11
8.39382e-12
1.01241e-11
9.21991e-12
1.26775e-11
1.17198e-11
1.26454e-11
1.07758e-11
9.72162e-12
6.98244e-12
1.1268e-11
2.05918e-11
4.13887e-11
8.8976e-11
1.9892e-10
4.42014e-10
9.6961e-10
2.10623e-09
4.52845e-09
9.64467e-09
2.03461e-08
4.25371e-08
8.81224e-08
1.80894e-07
3.67896e-07
7.41213e-07
1.47914e-06
2.92318e-06
5.72017e-06
1.10813e-05
2.12478e-05
4.0318e-05
7.56917e-05
0.000140561
0.000258136
0.000468691
0.000841128
0.00149159
0.00261287
0.0045198
0.0077179
0.0130044
0.0216129
0.0354136
0.0571802
0.0909304
0.142334
0.219167
0.331752
0.493299
0.719996
1.03065
1.44564
1.98475
2.66329
3.48578
4.44311
5.52014
6.70388
7.98386
9.35016
10.7928
12.3023
13.8696
15.4868
17.1466
18.843
20.571
22.326
24.1046
25.9036
27.7206
29.5532
31.3999
33.2589
35.1289
37.0089
38.8979
40.7949
42.6993
44.6104
46.5275
48.4502
50.378
52.3105
54.2473
56.1879
58.1322
60.0798
62.0303
63.9837
65.9396
67.8977
69.858
71.8201
73.7839
75.7492
77.7158
79.6835
81.6521
83.6216
85.5916
87.5621
89.5329
91.5039
93.4748
95.4454
97.4158
99.3855
101.355
103.323
105.29
107.256
109.22
111.183
113.144
115.103
117.06
119.014
120.965
122.913
124.859
126.8
128.738
130.671
132.6
134.524
136.443
138.356
140.263
142.164
144.057
145.943
147.82
149.688
151.547
153.396
155.233
157.059
158.871
160.669
162.453
164.22
165.969
167.699
169.409
171.096
172.759
174.396
176.004
177.581
179.126
180.633
182.102
183.529
184.91
186.243
187.522
188.745
189.908
191.005
192.036
192.994
193.878
194.686
195.413
196.06
196.627
197.116
197.527
197.866
198.139
198.349
198.505
198.616
198.69
198.732
198.751
198.759
198.76
198.759
198.757
198.75
198.736
198.714
198.687
198.663
198.642
198.625
198.613
198.604
198.598
198.594
198.591
198.59
198.588
198.588
198.587
198.586
198.585
198.584
198.583
198.582
198.581
198.58
198.58
198.579
198.579
198.578
198.578
198.577
198.576
198.575
198.575
198.574
198.573
198.572
198.572
198.571
198.571
198.57
198.569
198.568
198.568
198.567
198.567
198.566
198.565
198.565
198.564
198.564
198.563
198.562
198.562
198.561
198.561
198.56
198.56
198.559
198.559
198.558
198.558
198.557
198.556
198.556
198.555
198.555
198.554
198.553
198.553
198.552
198.552
198.551
198.551
198.55
198.55
198.549
198.549
198.548
198.548
198.547
198.547
198.546
198.545
198.545
198.544
198.544
198.543
198.543
198.542
198.542
198.541
198.541
198.541
198.54
198.54
198.54
198.54
198.539
198.539
198.538
198.538
198.538
198.539
198.539
198.538
198.538
198.537
198.537
198.537
198.536
198.54
198.552
198.567
198.596
198.677
198.849
198.9
198.749
198.595
198.495
198.468
198.489
198.501
198.492
198.494
198.525
198.547
198.529
198.505
198.521
198.552
198.544
198.51
198.507
198.542
198.555
198.522
198.493
198.513
198.545
198.533
198.497
198.497
198.532
198.542
198.509
198.488
198.517
198.548
198.53
198.491
198.495
198.532
198.541
198.508
198.487
198.513
198.541
198.52
198.485
198.497
198.536
198.535
198.494
198.48
198.515
198.542
198.516
198.478
198.488
198.526
198.528
198.491
198.475
198.504
198.529
198.502
198.467
198.484
198.522
198.511
198.467
198.46
198.499
198.516
198.477
198.443
198.466
198.503
198.486
198.438
198.432
198.469
198.481
198.439
198.404
198.425
198.457
198.432
198.381
198.375
198.409
198.412
198.361
198.323
198.342
198.366
198.329
198.269
198.259
198.285
198.274
198.211
198.166
198.173
198.181
198.128
198.057
198.032
198.038
198.004
197.923
197.861
197.843
197.821
197.741
197.647
197.592
197.56
197.485
197.36
197.253
197.183
197.108
196.96
196.786
196.661
196.568
196.406
196.151
195.927
195.773
195.587
195.243
194.86
194.57
194.323
193.91
193.303
192.655
191.988
191.225
189.363
184.985
174.644
139.833
70.5202
20.26
5.15353
1.24156
0.29483
0.0697546
0.0164834
0.00389365
0.000919635
0.000217198
5.12963e-05
1.21143e-05
2.86082e-06
6.75553e-07
1.59512e-07
3.76607e-08
8.88435e-09
2.09384e-09
4.88477e-10
1.14573e-10
2.22719e-11
5.31163e-12
1.76251e-12
3.26398e-13
4.95091e-12
3.22138e-12
1.75079e-12
1.83219e-12
1.96242e-12
4.31278e-14
9.11858e-13
2.78794e-12
4.29347e-12
5.83152e-12
6.68868e-12
7.88737e-12
1.29532e-12
4.94067e-12
1.49937e-12
4.99619e-12
2.50792e-12
4.06841e-12
2.85108e-12
5.0287e-12
2.67027e-12
2.88436e-12
1.08635e-12
2.66731e-12
4.62852e-12
5.42767e-12
6.44053e-12
6.20601e-12
5.72301e-12
3.28802e-12
1.81475e-12
2.0403e-12
5.29579e-12
4.17636e-12
7.25829e-12
6.42653e-12
5.57174e-12
3.33514e-12
2.14675e-12
1.58112e-13
3.74623e-12
4.56305e-13
4.35829e-12
1.93342e-12
4.00144e-12
4.01355e-12
3.77013e-12
3.96076e-12
4.4781e-12
6.63955e-12
5.31373e-12
4.24202e-12
2.82146e-12
2.58575e-13
1.75482e-12
3.25838e-12
2.83686e-13
4.49419e-12
3.12637e-12
5.68977e-12
5.69833e-12
6.10431e-12
7.55743e-12
9.24326e-12
8.78264e-12
1.21802e-11
6.2038e-12
1.04966e-11
6.69025e-12
9.78268e-12
4.20189e-12
7.22699e-12
3.92401e-12
2.83995e-12
4.05012e-13
1.61873e-12
1.78041e-12
2.60671e-12
1.41181e-12
5.07452e-12
3.21932e-12
1.84596e-12
3.01473e-12
5.57541e-12
2.31853e-12
2.94607e-12
3.25888e-12
1.15085e-12
2.04813e-12
3.05335e-12
3.37517e-12
3.85346e-12
6.46734e-12
6.36923e-12
7.18718e-12
9.1775e-12
5.90283e-12
7.26679e-12
6.08985e-12
7.17393e-12
5.54298e-12
4.97597e-12
4.45755e-12
4.25002e-12
4.38485e-12
4.46742e-12
3.77113e-12
3.44649e-12
6.32712e-13
2.70483e-12
2.59044e-12
4.60863e-12
5.33766e-12
6.70597e-12
8.57531e-12
9.34949e-12
8.87566e-12
1.06391e-11
9.211e-12
1.04583e-11
1.08191e-11
1.02691e-11
1.1017e-11
1.01214e-11
8.87635e-12
7.5737e-12
6.82793e-12
5.06334e-12
5.65264e-12
2.16048e-12
1.69998e-12
1.62493e-12
4.45218e-12
2.07137e-12
1.02944e-12
4.12583e-12
3.64578e-12
3.99226e-12
1.22301e-12
2.1824e-12
1.16194e-12
2.17054e-12
1.29727e-12
1.46463e-12
1.36592e-12
4.30103e-13
1.28889e-12
3.14923e-12
2.20492e-13
4.9271e-12
3.64456e-12
2.96403e-12
3.09725e-13
6.60593e-13
4.6143e-12
1.50258e-12
4.46763e-12
4.60539e-12
4.29346e-12
5.52635e-12
1.67396e-12
2.86418e-12
3.48058e-13
4.72123e-13
3.42059e-13
6.01014e-14
1.76949e-12
2.60143e-13
1.94509e-12
5.32708e-12
4.85755e-12
6.38071e-12
1.23095e-12
5.60941e-12
4.93854e-12
6.28897e-12
7.51543e-12
5.18923e-12
8.54844e-12
8.79476e-12
9.80145e-12
9.07185e-12
1.03901e-11
8.77202e-12
9.38434e-12
9.48126e-12
9.25826e-12
7.04903e-12
1.0802e-11
9.67259e-12
1.11399e-11
1.37946e-11
1.37759e-11
1.28476e-11
1.57319e-11
1.57192e-11
1.38746e-11
1.4033e-11
1.46664e-11
1.41896e-11
1.541e-11
1.74267e-11
1.97453e-11
2.10726e-11
2.35732e-11
2.3961e-11
2.54467e-11
2.41635e-11
2.6568e-11
2.47247e-11
2.77106e-11
2.59272e-11
2.67547e-11
2.54739e-11
2.64135e-11
2.64347e-11
2.85186e-11
2.82254e-11
2.91383e-11
2.88928e-11
2.68896e-11
2.73094e-11
2.75565e-11
2.72445e-11
2.57511e-11
2.3936e-11
2.19312e-11
2.33082e-11
2.22294e-11
2.46168e-11
2.27174e-11
2.34868e-11
1.99583e-11
1.85133e-11
1.5635e-11
1.89063e-11
1.73679e-11
1.88994e-11
1.90146e-11
2.19592e-11
2.2156e-11
2.1228e-11
1.84629e-11
1.7112e-11
1.99975e-11
2.00036e-11
1.96239e-11
1.97172e-11
2.33131e-11
2.31571e-11
2.35623e-11
2.35962e-11
2.65929e-11
2.31236e-11
2.54444e-11
2.14115e-11
2.40534e-11
1.91715e-11
2.09807e-11
2.07143e-11
)
;

boundaryField
{
    sides
    {
        type            calculated;
        value           nonuniform List<scalar> 2(2.07143e-11 1.30692e-11);
    }
    empty
    {
        type            empty;
    }
}


// ************************************************************************* //
