/*--------------------------------*- C++ -*----------------------------------*\
| =========                 |                                                 |
| \\      /  F ield         | OpenFOAM: The Open Source CFD Toolbox           |
|  \\    /   O peration     | Version:  4.1                                   |
|   \\  /    A nd           | Web:      www.OpenFOAM.org                      |
|    \\/     M anipulation  |                                                 |
\*---------------------------------------------------------------------------*/
FoamFile
{
    version     2.0;
    format      ascii;
    class       volScalarField;
    location    "0.004";
    object      p;
}
// * * * * * * * * * * * * * * * * * * * * * * * * * * * * * * * * * * * * * //

dimensions      [1 -1 -2 0 0 0 0];

internalField   nonuniform List<scalar> 
1000
(
100000
100000
100000
100000
100000
100000
100000
100000
100000
100000
100000
100000
100000
100000
100000
100000
100000
100000
100000
100000
100000
100000
100000
100000
100000
100000
100000
100000
100000
100000
100000
100000
100000
100000
100000
100000
100000
100000
100000
100000
100000
100000
100000
100000
100000
100000
100000
100000
100000
100000
100000
100000
100000
100000
100000
100000
100000
100000
100000
100000
100000
100000
100000
100000
100000
100000
100000
100000
100000
100000
100000
100000
100000
100000
100000
100000
100000
100000
100000
100000
100000
100000
100000
100000
100000
100000
100000
100000
100000
100000
100000
100000
100000
100000
100000
100000
100000
100000
100000
100000
100000
100000
100000
100000
100000
100000
100000
100000
100000
100000
100000
100000
100000
100000
100000
100000
100000
100000
100000
100000
100000
100000
100000
100000
100000
100000
100000
100000
100000
100000
100000
100000
100000
100000
100000
100000
100000
100000
100000
100000
100000
100000
100000
100000
100000
100000
100000
100000
100000
100000
100000
100000
100000
100000
100000
100000
100000
100000
100000
100000
100000
100000
100000
100000
100000
100000
100000
100000
100000
100000
100000
100000
100000
100000
100000
100000
100000
100000
100000
100000
100000
100000
100000
100000
100000
100000
100000
100000
100000
100000
100000
100000
100000
100000
100000
100000
100000
100000
100000
100000
100000
100000
100000
100000
100000
100000
100000
100000
100000
100000
100000
100000
100000
100000
100000
100000
100000
100000
100000
100000
100000
100000
100000
100000
100000
100000
100000
100000
100000
100000
100000
100000
100000
100000
100000
100000
100000
100000
100000
100000
100000
100000
100000
100000
100000
100000
100000
100000
100000
100000
100000
100000
100000
100000
100000
100000
100000
100000
100000
100000
100000
100000
100000
100000
100000
100000
100000
100000
100000
100000
100000
100000
100000
100000
100000
100000
100000
100000
100000
100000
100000
100000
100000
100000
100000
100000
100000
100000
100000
100000
100000
100000
100000
100000
100000
100000
100000
100000
100000
100000
100000
100000
100000
100000
100000
100000
100000
100000
100000
100000
100000
100000
100000
99999.9
99999.8
99999.7
99999.5
99999.1
99998.4
99997.3
99995.5
99992.6
99987.8
99980.3
99968.6
99950.8
99924.2
99885.2
99829.2
99750.5
99642.7
99498.5
99311.2
99075.1
98788.7
98456.1
98083.7
97676.1
97237.4
96771.1
96281
95770.7
95243.5
94702.3
94149.8
93588
93018.9
92444
91864.7
91281.9
90696.7
90109.8
89521.7
88933.1
88344.5
87756.1
87168.5
86581.7
85996.1
85412
84829.5
84248.7
83669.9
83093.1
82518.5
81946.3
81376.4
80808.9
80244.1
79681.8
79122.2
78565.4
78011.4
77460.2
76911.9
76366.6
75824.2
75284.8
74748.5
74215.2
73685.1
73158.1
72634.2
72113.6
71596.1
71081.9
70571
70063.4
69559
69058.1
68560.4
68066.2
67575.4
67088
66604.1
66123.7
65646.8
65173.4
64703.7
64237.5
63775
63316.2
62861.2
62409.9
61962.4
61518.8
61079.1
60643.4
60211.8
59784.2
59360.8
58941.7
58527
58116.7
57710.9
57309.8
56913.5
56522
56135.7
55754.5
55378.7
55008.5
54644.1
54285.6
53933.4
53587.7
53248.9
52917
52592.8
52276.1
51968.2
51668.2
51378.2
51097.1
50826.6
50566.7
50317.8
50081.3
49856.8
49645.6
49448.1
49264.5
49096
48942.2
48803.6
48680.8
48572.8
48480.1
48401.8
48337.1
48285.4
48245.2
48214.5
48193.5
48179.4
48170.2
48166.3
48165.2
48165.2
48165.5
48166
48166.9
48168.7
48172.5
48177.2
48181.9
48185.8
48189
48191.3
48193
48194.1
48194.8
48195.2
48195.5
48195.8
48196
48196.2
48196.3
48196.4
48196.5
48196.6
48196.7
48196.8
48197
48197.1
48197.3
48197.4
48197.5
48197.6
48197.7
48197.8
48197.8
48197.9
48197.9
48197.9
48197.8
48198
48198.3
48198.4
48198.5
48198.6
48198.6
48198.7
48198.8
48198.9
48199
48199.1
48199.1
48199.2
48199.2
48199.3
48199.4
48199.5
48199.5
48199.6
48199.7
48199.7
48199.8
48199.8
48199.9
48200
48200
48200.1
48200.2
48200.3
48200.3
48200.4
48200.4
48200.5
48200.5
48200.6
48200.7
48200.8
48200.8
48200.9
48201
48201.1
48201.2
48201.2
48201.3
48201.4
48201.4
48201.4
48201.5
48201.5
48201.5
48201.5
48201.5
48201.5
48201.5
48201.5
48201.4
48201.4
48201.3
48201.3
48201.3
48201.3
48201.4
48201.5
48201.4
48201.4
48201.5
48201.7
48201.5
48201.4
48201.4
48201.5
48201.6
48201.6
48201.4
48201
48201.6
48203.7
48205
48206.2
48209.6
48197.4
48199.3
48197.9
48191
48198.4
48208.6
48208.5
48196.1
48194.1
48206.8
48211.8
48200.1
48191.3
48200.2
48212.8
48207.3
48191.2
48192.5
48210.6
48213.4
48196.4
48188.7
48201.1
48213.5
48206.3
48189.9
48192.8
48210.7
48212
48193.8
48188.4
48204.7
48214.4
48203.8
48189.1
48193.2
48210.7
48211.8
48194.1
48188.9
48204.2
48213.2
48201.2
48188.1
48195.9
48212.9
48210.2
48190.2
48187.8
48207
48214.7
48200.1
48187.3
48194.3
48211.3
48210.3
48191.3
48187.9
48205
48212.6
48197.8
48185.9
48196.7
48212.5
48206.3
48186.2
48187
48208.3
48212.5
48192
48182.5
48196.8
48211.5
48202.7
48182.9
48184.4
48205.4
48208.7
48187.6
48178.9
48193.7
48207.1
48195.7
48176.7
48179.6
48200.4
48201.4
48177.5
48170.3
48186.1
48198.2
48182.9
48164.9
48168.1
48187.4
48186.1
48160.4
48154.2
48168.1
48178.4
48159.1
48142.5
48144.3
48160.2
48155.8
48128.9
48123.1
48130.6
48138.2
48114.1
48097.7
48095.6
48103.9
48095.7
48062.5
48054.8
48055.1
48061.4
48025.1
47996.6
47989.5
47995.2
47979.2
47914.1
47895.2
47892.9
47899.9
47815.1
47758.7
47742
47749.9
47684.6
47539.8
47492.1
47471.7
47430.7
47123.3
46473.7
45224.5
41707.8
30812.9
26682.2
25421.2
25101
25024
25005.7
25001.3
25000.3
25000.1
25000
25000
25000
25000
25000
25000
25000
25000
25000
25000
25000
25000
25000
25000
25000
25000
25000
25000
25000
25000
25000
25000
25000
25000
25000
25000
25000
25000
25000
25000
25000
25000
25000
25000
25000
25000
25000
25000
25000
25000
25000
25000
25000
25000
25000
25000
25000
25000
25000
25000
25000
25000
25000
25000
25000
25000
25000
25000
25000
25000
25000
25000
25000
25000
25000
25000
25000
25000
25000
25000
25000
25000
25000
25000
25000
25000
25000
25000
25000
25000
25000
25000
25000
25000
25000
25000
25000
25000
25000
25000
25000
25000
25000
25000
25000
25000
25000
25000
25000
25000
25000
25000
25000
25000
25000
25000
25000
25000
25000
25000
25000
25000
25000
25000
25000
25000
25000
25000
25000
25000
25000
25000
25000
25000
25000
25000
25000
25000
25000
25000
25000
25000
25000
25000
25000
25000
25000
25000
25000
25000
25000
25000
25000
25000
25000
25000
25000
25000
25000
25000
25000
25000
25000
25000
25000
25000
25000
25000
25000
25000
25000
25000
25000
25000
25000
25000
25000
25000
25000
25000
25000
25000
25000
25000
25000
25000
25000
25000
25000
25000
25000
25000
25000
25000
25000
25000
25000
25000
25000
25000
25000
25000
25000
25000
25000
25000
25000
25000
25000
25000
25000
25000
25000
25000
25000
25000
25000
25000
25000
25000
25000
25000
25000
25000
25000
25000
25000
25000
25000
25000
25000
25000
25000
25000
25000
25000
25000
25000
25000
25000
25000
25000
25000
25000
25000
25000
25000
25000
25000
25000
25000
25000
25000
25000
25000
25000
25000
25000
25000
25000
25000
25000
25000
25000
25000
25000
25000
25000
25000
25000
25000
25000
25000
25000
25000
25000
25000
25000
25000
25000
25000
25000
25000
25000
25000
)
;

boundaryField
{
    sides
    {
        type            zeroGradient;
    }
    empty
    {
        type            empty;
    }
}


// ************************************************************************* //
