/*--------------------------------*- C++ -*----------------------------------*\
| =========                 |                                                 |
| \\      /  F ield         | OpenFOAM: The Open Source CFD Toolbox           |
|  \\    /   O peration     | Version:  4.1                                   |
|   \\  /    A nd           | Web:      www.OpenFOAM.org                      |
|    \\/     M anipulation  |                                                 |
\*---------------------------------------------------------------------------*/
FoamFile
{
    version     2.0;
    format      ascii;
    class       surfaceScalarField;
    location    "0.004";
    object      phi;
}
// * * * * * * * * * * * * * * * * * * * * * * * * * * * * * * * * * * * * * //

dimensions      [1 0 -1 0 0 0 0];

internalField   nonuniform List<scalar> 
999
(
-4.42171e-11
-5.16138e-11
-5.44773e-11
-5.43849e-11
-5.54934e-11
-6.11067e-11
-7.04503e-11
-6.85176e-11
-6.14548e-11
-5.48965e-11
-4.81322e-11
-4.99867e-11
-5.75966e-11
-5.668e-11
-5.53015e-11
-5.6275e-11
-5.61187e-11
-5.20615e-11
-5.36318e-11
-4.81251e-11
-4.32649e-11
-4.74856e-11
-4.99512e-11
-4.3336e-11
-4.15739e-11
-4.31513e-11
-3.41629e-11
-2.84786e-11
-1.91847e-11
-1.33866e-11
-1.96323e-11
-2.41727e-11
-2.89688e-11
-2.7697e-11
-2.1231e-11
-1.46727e-11
-2.03642e-11
-2.54019e-11
-3.19815e-11
-2.78177e-11
-2.96154e-11
-2.41585e-11
-2.467e-11
-2.85425e-11
-2.90683e-11
-2.90541e-11
-3.39995e-11
-3.44116e-11
-2.8443e-11
-3.228e-11
-3.30473e-11
-3.07523e-11
-2.53024e-11
-2.96438e-11
-3.58966e-11
-4.13465e-11
-4.67892e-11
-4.07852e-11
-3.56408e-11
-3.40421e-11
-3.39142e-11
-3.25358e-11
-2.61124e-11
-1.78417e-11
-1.07505e-11
-1.17595e-11
-1.27756e-11
-1.74367e-11
-1.60441e-11
-1.21716e-11
-1.64988e-11
-2.36753e-11
-2.92246e-11
-2.93028e-11
-2.5409e-11
-2.85922e-11
-2.13873e-11
-2.50679e-11
-2.4194e-11
-2.2446e-11
-2.93028e-11
-2.98215e-11
-2.24034e-11
-2.33484e-11
-2.33698e-11
-1.95612e-11
-1.29035e-11
-9.53548e-12
-1.86162e-12
2.29505e-12
1.07363e-11
1.93978e-11
1.84315e-11
1.61933e-11
1.67262e-11
2.43077e-11
2.88054e-11
2.91749e-11
2.35403e-11
2.96652e-11
2.65743e-11
3.28271e-11
3.4639e-11
3.07807e-11
2.90967e-11
2.65885e-11
2.60982e-11
3.1541e-11
3.48095e-11
3.5989e-11
3.68061e-11
4.30518e-11
3.80993e-11
3.08091e-11
2.70433e-11
2.59206e-11
3.29123e-11
3.98899e-11
3.97478e-11
4.71161e-11
4.95959e-11
4.72724e-11
5.45555e-11
5.40012e-11
4.57092e-11
4.87717e-11
5.02993e-11
4.394e-11
3.74953e-11
3.19176e-11
2.58211e-11
2.19842e-11
2.22897e-11
2.68585e-11
2.98428e-11
3.26565e-11
3.09726e-11
2.47624e-11
2.18137e-11
1.61791e-11
2.24105e-11
2.3114e-11
2.37037e-11
2.34763e-11
2.86491e-11
3.52145e-11
2.71712e-11
3.1342e-11
3.22871e-11
3.44684e-11
2.99636e-11
3.40634e-11
3.51221e-11
2.98286e-11
2.58709e-11
2.56435e-11
2.61196e-11
2.6553e-11
3.06599e-11
2.98996e-11
2.73417e-11
2.32987e-11
2.20268e-11
1.5433e-11
1.80052e-11
2.4464e-11
2.76472e-11
2.88196e-11
2.76827e-11
2.99494e-11
3.32747e-11
3.88596e-11
4.19575e-11
4.59295e-11
4.51763e-11
4.66542e-11
4.18439e-11
4.17799e-11
3.66569e-11
3.89946e-11
3.80211e-11
3.13705e-11
3.1207e-11
2.8372e-11
2.71498e-11
1.86091e-11
1.60227e-11
2.01723e-11
1.84812e-11
2.57785e-11
2.76899e-11
1.99307e-11
1.95968e-11
2.37819e-11
3.05249e-11
3.52145e-11
3.02336e-11
2.36327e-11
2.14229e-11
1.5433e-11
8.92442e-12
9.19442e-12
1.72378e-11
1.74722e-11
1.58096e-11
1.61293e-11
1.84812e-11
2.50324e-11
2.99707e-11
2.77254e-11
2.53237e-11
2.03855e-11
2.06697e-11
2.46345e-11
3.23226e-11
3.02123e-11
3.56835e-11
3.12994e-11
3.01696e-11
3.50866e-11
4.19362e-11
3.9627e-11
4.54321e-11
3.72822e-11
3.26068e-11
3.08589e-11
2.40163e-11
2.96581e-11
3.57403e-11
3.50866e-11
3.51861e-11
4.03091e-11
3.60174e-11
3.71472e-11
3.57829e-11
3.01057e-11
2.46487e-11
1.67475e-11
1.32658e-11
7.68807e-12
7.73781e-12
8.83915e-12
9.01679e-12
1.25482e-11
1.64206e-11
1.83746e-11
1.03668e-11
1.13403e-11
2.26379e-11
2.59774e-11
2.68869e-11
2.45848e-11
2.22116e-11
2.22045e-11
2.92815e-11
3.26139e-11
2.62972e-11
1.81473e-11
1.80123e-11
1.89218e-11
2.27161e-11
1.63922e-11
1.50493e-11
1.52767e-11
1.77067e-11
1.01892e-11
1.09779e-11
8.10019e-12
5.17275e-12
3.63798e-12
1.19869e-11
1.9007e-11
1.70814e-11
1.68896e-11
2.4734e-11
2.7832e-11
3.22302e-11
3.21734e-11
3.35945e-11
3.44471e-11
3.19389e-11
3.18892e-11
4.03517e-11
4.23412e-11
4.0572e-11
4.23626e-11
3.51008e-11
2.77893e-11
2.98996e-11
5.38734e-11
1.01743e-10
2.14165e-10
4.73435e-10
1.05405e-09
2.32495e-09
5.07305e-09
1.09524e-08
2.3421e-08
4.96085e-08
1.04118e-07
2.16551e-07
4.46305e-07
9.11368e-07
1.84375e-06
3.69482e-06
7.33335e-06
1.44131e-05
2.80466e-05
5.40247e-05
0.000102993
0.000194286
0.00036257
0.000669212
0.00122138
0.00220361
0.00392917
0.00692175
0.0120433
0.0206887
0.0350773
0.0586739
0.0967838
0.15736
0.252056
0.397528
0.616941
0.941546
1.41207
2.07949
3.00465
4.25589
5.90379
8.01162
10.6188
13.7106
17.2216
21.0919
25.2782
29.7416
34.4428
39.3439
44.4092
49.6063
54.9069
60.2867
65.7249
71.2041
76.7101
82.2306
87.7558
93.2772
98.7881
104.282
109.755
115.203
120.621
126.007
131.359
136.673
141.949
147.184
152.378
157.528
162.633
167.694
172.709
177.676
182.597
187.469
192.294
197.069
201.795
206.472
211.099
215.676
220.203
224.68
229.107
233.483
237.808
242.083
246.307
250.481
254.604
258.676
262.698
266.669
270.589
274.459
278.279
282.048
285.766
289.435
293.053
296.62
300.138
303.606
307.023
310.391
313.708
316.976
320.194
323.362
326.48
329.549
332.568
335.537
338.455
341.325
344.144
346.913
349.631
352.3
354.917
357.484
360
362.465
364.878
367.239
369.547
371.803
374.004
376.153
378.243
380.285
382.257
384.192
386.039
387.865
389.585
391.283
392.897
394.427
395.954
397.309
398.709
399.949
401.13
402.304
403.275
404.277
405.171
405.91
406.684
407.308
407.818
408.35
408.741
409.035
409.346
409.553
409.676
409.81
409.896
409.927
409.944
409.963
409.962
409.954
409.948
409.938
409.926
409.909
409.887
409.867
409.848
409.828
409.815
409.806
409.795
409.789
409.785
409.779
409.775
409.773
409.771
409.768
409.764
409.761
409.757
409.752
409.748
409.746
409.743
409.739
409.737
409.734
409.73
409.725
409.722
409.717
409.711
409.707
409.702
409.693
409.685
409.694
409.691
409.685
409.681
409.677
409.672
409.667
409.663
409.658
409.653
409.649
409.643
409.636
409.632
409.627
409.621
409.614
409.609
409.605
409.599
409.59
409.583
409.579
409.573
409.564
409.555
409.549
409.544
409.536
409.524
409.515
409.509
409.502
409.492
409.479
409.467
409.46
409.454
409.445
409.431
409.413
409.398
409.389
409.382
409.373
409.354
409.33
409.308
409.293
409.284
409.276
409.261
409.229
409.192
409.162
409.144
409.133
409.121
409.096
409.043
408.985
408.94
408.91
408.894
408.878
408.851
408.774
408.627
408.497
408.401
408.345
408.317
408.312
408.388
408.606
408.764
408.786
408.677
407.416
399.22
375.606
351.982
331.565
315.196
302.911
293.545
286.528
281.604
278.571
276.708
275.294
274.148
273.663
273.783
273.695
273.196
273.031
273.354
273.565
273.369
273.035
273.082
273.512
273.563
273.114
273.016
273.4
273.575
273.322
273.03
273.164
273.559
273.569
273.104
273.014
273.429
273.59
273.334
273.054
273.181
273.551
273.527
273.085
273.038
273.519
273.634
273.22
273.005
273.254
273.606
273.538
273.083
273.028
273.491
273.612
273.275
273.042
273.233
273.582
273.497
273.059
273.055
273.549
273.63
273.126
272.976
273.351
273.633
273.419
273.003
273.054
273.558
273.616
273.075
272.951
273.344
273.604
273.358
272.966
273.033
273.519
273.559
273
272.895
273.334
273.562
273.218
272.872
272.979
273.452
273.443
272.871
272.782
273.223
273.438
273.002
272.716
272.818
273.259
273.202
272.643
272.578
272.933
273.146
272.614
272.411
272.48
272.85
272.741
272.194
272.166
272.338
272.595
271.91
271.72
271.744
272.031
271.886
271.055
271.012
271.178
271.572
270.329
269.946
270.029
270.544
270.06
268.374
268.269
268.689
269.391
266.157
265.544
265.631
266.512
265.853
256.23
248.316
227.148
120.045
38.0924
10.0404
2.44306
0.581247
0.137583
0.0325216
0.00768306
0.00181471
0.000428604
0.000101226
2.39066e-05
5.64577e-06
1.33324e-06
3.14823e-07
7.43342e-08
1.75472e-08
4.13828e-09
9.73142e-10
2.27102e-10
5.14131e-11
1.01874e-11
1.33227e-12
-1.15286e-12
-2.26308e-12
-3.57936e-12
-2.17248e-12
-1.66089e-12
-1.51701e-12
-7.72715e-13
-3.85469e-13
-1.803e-12
-3.03757e-12
-4.18687e-12
-5.70566e-12
-6.04494e-12
-4.29701e-12
-2.46025e-12
-3.0056e-12
-2.8848e-12
-2.96474e-12
-3.2454e-12
-2.66631e-12
-3.70193e-12
-3.36442e-12
-2.4265e-12
-1.54188e-12
-1.83675e-12
-3.16724e-12
-4.5226e-12
-4.90452e-12
-5.73408e-12
-5.33085e-12
-3.6664e-12
-2.27196e-12
-1.62181e-12
-3.27027e-12
-4.43912e-12
-4.61853e-12
-6.06093e-12
-5.01998e-12
-4.03411e-12
-2.46025e-12
-1.02141e-12
-1.51879e-12
-1.60938e-12
-1.5401e-12
-1.16351e-12
2.67342e-12
3.41593e-12
3.62377e-12
3.18323e-12
3.76232e-12
4.66471e-12
5.61329e-12
3.68239e-12
3.29692e-12
1.40865e-12
8.22453e-13
-7.08766e-13
-1.0747e-12
-2.24709e-12
-2.85461e-12
-4.24905e-12
-4.63274e-12
-5.36104e-12
-5.93303e-12
-7.53353e-12
-7.52998e-12
-9.33831e-12
-8.3471e-12
-6.69687e-12
-7.64899e-12
-7.64011e-12
-5.75184e-12
-5.0111e-12
-5.01288e-12
-2.79599e-12
-1.02673e-12
7.90479e-13
1.6751e-12
1.6378e-12
2.02327e-12
2.5473e-12
3.83693e-12
2.30038e-12
2.07834e-12
3.55449e-12
3.72857e-12
2.01084e-12
2.9754e-12
1.78169e-12
1.52411e-12
2.01617e-12
3.16192e-12
2.7498e-12
4.89386e-12
5.31664e-12
5.8531e-12
7.4003e-12
6.22258e-12
6.00586e-12
5.5369e-12
5.85132e-12
5.83356e-12
4.20108e-12
4.15312e-12
4.01812e-12
3.9293e-12
3.5989e-12
3.72857e-12
3.13527e-12
1.23812e-12
9.92983e-13
2.09077e-12
3.11928e-12
4.46931e-12
5.43565e-12
6.53166e-12
7.919e-12
7.83906e-12
8.49276e-12
8.38618e-12
8.7006e-12
9.11626e-12
9.48042e-12
8.98837e-12
9.23528e-12
8.34177e-12
7.3932e-12
6.01474e-12
4.98623e-12
4.75886e-12
3.63443e-12
1.52589e-12
1.56319e-12
2.42828e-12
3.16724e-12
1.10489e-12
2.63789e-12
2.95408e-12
3.63443e-12
2.47447e-12
1.33404e-12
1.38023e-12
-3.94351e-13
-4.24549e-13
-5.32907e-14
-3.19744e-14
3.23297e-13
4.03233e-13
2.14406e-12
1.28075e-12
2.46558e-12
3.47455e-12
3.06954e-12
1.08535e-12
1.93623e-13
2.43006e-12
2.46558e-12
2.55618e-12
4.11404e-12
3.71614e-12
4.36984e-12
3.33422e-12
1.77813e-12
1.47615e-12
3.73035e-13
9.05942e-14
-1.72307e-13
-8.13571e-13
-5.86198e-13
1.08535e-12
2.79066e-12
4.80682e-12
5.0111e-12
3.27915e-12
3.11218e-12
4.39471e-12
4.6807e-12
6.34337e-12
5.23492e-12
5.75717e-12
7.82485e-12
7.97939e-12
8.45546e-12
8.24407e-12
8.33111e-12
7.78932e-12
8.48921e-12
8.37019e-12
6.60094e-12
8.09308e-12
9.18554e-12
8.76454e-12
1.07949e-11
1.22693e-11
1.13012e-11
1.23581e-11
1.3987e-11
1.25873e-11
1.23439e-11
1.26299e-11
1.22018e-11
1.27791e-11
1.43991e-11
1.60654e-11
1.80531e-11
1.91083e-11
2.09663e-11
2.12772e-11
2.15383e-11
2.20428e-11
2.21352e-11
2.29647e-11
2.36486e-11
2.27818e-11
2.21458e-11
2.26201e-11
2.31797e-11
2.35456e-11
2.49187e-11
2.51834e-11
2.52971e-11
2.43734e-11
2.26503e-11
2.44622e-11
2.38405e-11
2.31903e-11
2.12363e-11
2.02576e-11
1.94138e-11
1.92912e-11
2.09752e-11
2.02487e-11
2.04619e-11
1.89111e-11
1.67599e-11
1.45768e-11
1.48059e-11
1.61169e-11
1.55822e-11
1.61684e-11
1.78506e-11
1.92237e-11
1.90923e-11
1.75522e-11
1.52394e-11
1.63407e-11
1.75575e-11
1.72058e-11
1.66835e-11
1.85363e-11
2.05311e-11
1.99964e-11
2.08349e-11
2.12914e-11
2.23963e-11
2.03872e-11
2.06111e-11
1.93765e-11
1.92824e-11
1.73355e-11
1.78684e-11
)
;

boundaryField
{
    sides
    {
        type            calculated;
        value           nonuniform List<scalar> 2(1.79986e-11 4.5415e-11);
    }
    empty
    {
        type            empty;
        value           nonuniform 0();
    }
}


// ************************************************************************* //
