/*--------------------------------*- C++ -*----------------------------------*\
| =========                 |                                                 |
| \\      /  F ield         | OpenFOAM: The Open Source CFD Toolbox           |
|  \\    /   O peration     | Version:  4.1                                   |
|   \\  /    A nd           | Web:      www.OpenFOAM.org                      |
|    \\/     M anipulation  |                                                 |
\*---------------------------------------------------------------------------*/
FoamFile
{
    version     2.0;
    format      ascii;
    class       volScalarField;
    location    "0.004";
    object      T;
}
// * * * * * * * * * * * * * * * * * * * * * * * * * * * * * * * * * * * * * //

dimensions      [0 0 0 1 0 0 0];

internalField   nonuniform List<scalar> 
1000
(
400
400
400
400
400
400
400
400
400
400
400
400
400
400
400
400
400
400
400
400
400
400
400
400
400
400
400
400
400
400
400
400
400
400
400
400
400
400
400
400
400
400
400
400
400
400
400
400
400
400
400
400
400
400
400
400
400
400
400
400
400
400
400
400
400
400
400
400
400
400
400
400
400
400
400
400
400
400
400
400
400
400
400
400
400
400
400
400
400
400
400
400
400
400
400
400
400
400
400
400
400
400
400
400
400
400
400
400
400
400
400
400
400
400
400
400
400
400
400
400
400
400
400
400
400
400
400
400
400
400
400
400
400
400
400
400
400
400
400
400
400
400
400
400
400
400
400
400
400
400
400
400
400
400
400
400
400
400
400
400
400
400
400
400
400
400
400
400
400
400
400
400
400
400
400
400
400
400
400
400
400
400
400
400
400
400
400
400
400
400
400
400
400
400
400
400
400
400
400
400
400
400
400
400
400
400
400
400
400
400
400
400
400
400
400
400
400
400
400
400
400
400
400
400
400
400
400
400
400
400
400
400
400
400
400
400
400
400
400
400
400
400
400
400
400
400
400
400
400
400
400
400
400
400
400
400
400
400
400
400
400
400
400
400
400
400
400
400
400
400
400
400
400
400
400
400
400
400
400
400
400
400
400
400
400
400
400
400
400
400
400
400
400
400
400
400
400
400
400
400
400
400
400
400
400
400
400
400
400
400
400
400
400
400
400
400
399.999
399.999
399.998
399.997
399.995
399.991
399.986
399.977
399.964
399.944
399.913
399.868
399.804
399.714
399.59
399.425
399.209
398.938
398.607
398.223
397.791
397.317
396.806
396.26
395.685
395.084
394.46
393.818
393.159
392.486
391.802
391.107
390.404
389.694
388.978
388.256
387.529
386.799
386.064
385.327
384.587
383.844
383.1
382.354
381.606
380.856
380.106
379.354
378.602
377.849
377.095
376.341
375.587
374.832
374.077
373.322
372.566
371.811
371.057
370.302
369.547
368.793
368.04
367.287
366.534
365.782
365.031
364.28
363.53
362.781
362.033
361.286
360.54
359.795
359.051
358.309
357.568
356.828
356.089
355.353
354.617
353.884
353.152
352.422
351.694
350.969
350.245
349.524
348.805
348.088
347.375
346.664
345.956
345.252
344.551
343.853
343.159
342.469
341.783
341.102
340.426
339.755
339.089
338.429
337.776
337.128
336.49
335.853
335.237
334.606
334.03
333.384
332.879
332.189
331.785
331.053
330.71
330.04
329.623
329.159
328.587
328.308
327.753
327.404
327.102
326.625
326.418
326.118
325.775
325.647
325.41
325.188
325.116
324.973
324.842
324.811
324.755
324.689
324.678
324.676
324.66
324.657
324.661
324.666
324.668
324.669
324.673
324.685
324.696
324.703
324.715
324.722
324.725
324.732
324.736
324.737
324.739
324.743
324.745
324.746
324.748
324.751
324.753
324.754
324.757
324.76
324.761
324.763
324.766
324.769
324.77
324.772
324.776
324.777
324.779
324.783
324.785
324.787
324.789
324.793
324.795
324.797
324.801
324.805
324.807
324.81
324.814
324.816
324.82
324.824
324.827
324.83
324.834
324.839
324.841
324.844
324.85
324.855
324.857
324.861
324.866
324.873
324.876
324.879
324.885
324.893
324.898
324.901
324.905
324.913
324.921
324.927
324.93
324.936
324.945
324.956
324.964
324.968
324.972
324.981
324.995
325.008
325.017
325.022
325.026
325.036
325.054
325.073
325.088
325.096
325.1
325.107
325.125
325.154
325.182
325.2
325.21
325.216
325.228
325.259
325.306
325.348
325.378
325.393
325.402
325.415
325.451
325.549
325.665
325.76
325.824
325.852
325.856
325.83
325.706
325.557
325.476
325.472
325.878
329.171
342.67
366.341
390.129
412.224
431.523
447.408
459.761
468.876
475.344
479.772
482.652
484.415
485.472
486.127
486.52
486.696
486.742
486.789
486.863
486.878
486.825
486.791
486.816
486.852
486.832
486.773
486.772
486.825
486.831
486.773
486.749
486.792
486.823
486.795
486.743
486.746
486.8
486.806
486.751
486.728
486.768
486.797
486.765
486.718
486.732
486.785
486.782
486.717
486.703
486.757
486.783
486.743
486.698
486.71
486.764
486.764
486.703
486.687
486.734
486.76
486.72
486.678
486.702
486.754
486.742
486.675
486.669
486.733
486.75
486.69
486.655
486.691
486.74
486.721
486.654
486.651
486.715
486.73
486.669
486.637
486.675
486.719
486.692
486.627
486.628
486.692
486.701
486.629
486.602
486.644
486.685
486.646
486.583
486.585
486.645
486.65
486.571
486.549
486.586
486.622
486.57
486.512
486.511
486.56
486.557
486.472
486.453
486.472
486.498
486.43
486.376
486.371
486.394
486.383
486.277
486.249
486.244
486.272
486.176
486.073
486.054
486.08
486.055
485.83
485.777
485.777
485.798
485.552
485.402
485.347
485.321
485.193
484.762
484.595
484.483
484.446
483.577
481.352
477.842
469.469
426.519
407.697
401.93
400.463
400.11
400.026
400.006
400.001
400
400
400
400
400
400
400
400
400
400
400
400
400
400
400
400
400
400
400
400
400
400
400
400
400
400
400
400
400
400
400
400
400
400
400
400
400
400
400
400
400
400
400
400
400
400
400
400
400
400
400
400
400
400
400
400
400
400
400
400
400
400
400
400
400
400
400
400
400
400
400
400
400
400
400
400
400
400
400
400
400
400
400
400
400
400
400
400
400
400
400
400
400
400
400
400
400
400
400
400
400
400
400
400
400
400
400
400
400
400
400
400
400
400
400
400
400
400
400
400
400
400
400
400
400
400
400
400
400
400
400
400
400
400
400
400
400
400
400
400
400
400
400
400
400
400
400
400
400
400
400
400
400
400
400
400
400
400
400
400
400
400
400
400
400
400
400
400
400
400
400
400
400
400
400
400
400
400
400
400
400
400
400
400
400
400
400
400
400
400
400
400
400
400
400
400
400
400
400
400
400
400
400
400
400
400
400
400
400
400
400
400
400
400
400
400
400
400
400
400
400
400
400
400
400
400
400
400
400
400
400
400
400
400
400
400
400
400
400
400
400
400
400
400
400
400
400
400
400
400
400
400
400
400
400
400
400
400
400
400
400
400
400
400
400
400
400
400
400
400
400
400
400
400
400
400
)
;

boundaryField
{
    sides
    {
        type            zeroGradient;
    }
    empty
    {
        type            empty;
    }
}


// ************************************************************************* //
