/*--------------------------------*- C++ -*----------------------------------*\
| =========                 |                                                 |
| \\      /  F ield         | OpenFOAM: The Open Source CFD Toolbox           |
|  \\    /   O peration     | Version:  4.1                                   |
|   \\  /    A nd           | Web:      www.OpenFOAM.org                      |
|    \\/     M anipulation  |                                                 |
\*---------------------------------------------------------------------------*/
FoamFile
{
    version     2.0;
    format      ascii;
    class       volVectorField;
    location    "0.004";
    object      U;
}
// * * * * * * * * * * * * * * * * * * * * * * * * * * * * * * * * * * * * * //

dimensions      [0 1 -1 0 0 0 0];

internalField   nonuniform List<vector> 
1000
(
(-1.30692e-11 0 0)
(-1.31353e-11 0 0)
(-1.5829e-11 0 0)
(-1.58813e-11 0 0)
(-1.55285e-11 0 0)
(-1.68009e-11 0 0)
(-1.87042e-11 0 0)
(-2.07152e-11 0 0)
(-1.85261e-11 0 0)
(-1.77838e-11 0 0)
(-1.34698e-11 0 0)
(-1.45212e-11 0 0)
(-1.48418e-11 0 0)
(-1.75389e-11 0 0)
(-1.51609e-11 0 0)
(-1.66644e-11 0 0)
(-1.55993e-11 0 0)
(-1.67078e-11 0 0)
(-1.36352e-11 0 0)
(-1.63973e-11 0 0)
(-1.1582e-11 0 0)
(-1.36813e-11 0 0)
(-1.37449e-11 0 0)
(-1.42818e-11 0 0)
(-1.0635e-11 0 0)
(-1.39085e-11 0 0)
(-1.01985e-11 0 0)
(-9.96341e-12 0 0)
(-6.38103e-12 0 0)
(-3.84141e-12 0 0)
(-4.65306e-12 0 0)
(-5.84449e-12 0 0)
(-8.86198e-12 0 0)
(-7.20048e-12 0 0)
(-8.89994e-12 0 0)
(-2.86754e-12 0 0)
(-6.00731e-12 0 0)
(-4.98745e-12 0 0)
(-1.04261e-11 0 0)
(-7.09911e-12 0 0)
(-9.73082e-12 0 0)
(-6.3993e-12 0 0)
(-8.29876e-12 0 0)
(-5.94262e-12 0 0)
(-9.86974e-12 0 0)
(-6.85556e-12 0 0)
(-9.90826e-12 0 0)
(-1.02726e-11 0 0)
(-8.84856e-12 0 0)
(-7.34402e-12 0 0)
(-1.13657e-11 0 0)
(-8.23672e-12 0 0)
(-8.62073e-12 0 0)
(-6.81001e-12 0 0)
(-9.25685e-12 0 0)
(-1.20145e-11 0 0)
(-1.21699e-11 0 0)
(-1.3963e-11 0 0)
(-9.5392e-12 0 0)
(-1.13225e-11 0 0)
(-8.21036e-12 0 0)
(-1.12755e-11 0 0)
(-7.43678e-12 0 0)
(-7.19762e-12 0 0)
(-2.87467e-12 0 0)
(-3.83514e-12 0 0)
(-2.38777e-12 0 0)
(-5.67057e-12 0 0)
(-3.58272e-12 0 0)
(-5.99717e-12 0 0)
(-1.45496e-12 0 0)
(-7.20112e-12 0 0)
(-7.09256e-12 0 0)
(-1.03295e-11 0 0)
(-5.36881e-12 0 0)
(-1.0024e-11 0 0)
(-5.51956e-12 0 0)
(-7.51941e-12 0 0)
(-7.31136e-12 0 0)
(-6.36315e-12 0 0)
(-7.26464e-12 0 0)
(-8.67528e-12 0 0)
(-7.60895e-12 0 0)
(-6.39137e-12 0 0)
(-7.0595e-12 0 0)
(-5.74023e-12 0 0)
(-5.39034e-12 0 0)
(-2.2976e-12 0 0)
(-2.90752e-12 0 0)
(1.66432e-12 0 0)
(-2.11951e-13 0 0)
(6.88496e-12 0 0)
(3.66436e-12 0 0)
(6.7713e-12 0 0)
(3.06707e-12 0 0)
(6.94864e-12 0 0)
(6.49912e-12 0 0)
(9.87375e-12 0 0)
(6.32041e-12 0 0)
(8.2517e-12 0 0)
(7.88129e-12 0 0)
(7.86369e-12 0 0)
(1.13129e-11 0 0)
(8.02576e-12 0 0)
(9.48807e-12 0 0)
(7.69647e-12 0 0)
(7.057e-12 0 0)
(8.57512e-12 0 0)
(9.20472e-12 0 0)
(1.05411e-11 0 0)
(1.04841e-11 0 0)
(1.1382e-11 0 0)
(1.25775e-11 0 0)
(9.54601e-12 0 0)
(8.06823e-12 0 0)
(7.72532e-12 0 0)
(7.83651e-12 0 0)
(1.04915e-11 0 0)
(1.15003e-11 0 0)
(1.26408e-11 0 0)
(1.37858e-11 0 0)
(1.43173e-11 0 0)
(1.38857e-11 0 0)
(1.65752e-11 0 0)
(1.34597e-11 0 0)
(1.42088e-11 0 0)
(1.34484e-11 0 0)
(1.48749e-11 0 0)
(1.10782e-11 0 0)
(1.0411e-11 0 0)
(7.7123e-12 0 0)
(6.17364e-12 0 0)
(7.00818e-12 0 0)
(6.65371e-12 0 0)
(8.22846e-12 0 0)
(9.50931e-12 0 0)
(9.17033e-12 0 0)
(7.86129e-12 0 0)
(6.95078e-12 0 0)
(4.89431e-12 0 0)
(5.19895e-12 0 0)
(7.1312e-12 0 0)
(6.01572e-12 0 0)
(6.85603e-12 0 0)
(7.24069e-12 0 0)
(1.01041e-11 0 0)
(9.04594e-12 0 0)
(7.29476e-12 0 0)
(1.03369e-11 0 0)
(9.08651e-12 0 0)
(9.69249e-12 0 0)
(7.8852e-12 0 0)
(1.18669e-11 0 0)
(8.07417e-12 0 0)
(8.89108e-12 0 0)
(6.61904e-12 0 0)
(7.71922e-12 0 0)
(7.46573e-12 0 0)
(8.04465e-12 0 0)
(9.2791e-12 0 0)
(8.44211e-12 0 0)
(6.80119e-12 0 0)
(6.97013e-12 0 0)
(5.20753e-12 0 0)
(3.95011e-12 0 0)
(6.61197e-12 0 0)
(7.63524e-12 0 0)
(7.85114e-12 0 0)
(8.22377e-12 0 0)
(8.10526e-12 0 0)
(9.48124e-12 0 0)
(1.05866e-11 0 0)
(1.05781e-11 0 0)
(1.3547e-11 0 0)
(1.25427e-11 0 0)
(1.44247e-11 0 0)
(1.17562e-11 0 0)
(1.30518e-11 0 0)
(9.79641e-12 0 0)
(1.22566e-11 0 0)
(1.0289e-11 0 0)
(1.05791e-11 0 0)
(8.73046e-12 0 0)
(8.56001e-12 0 0)
(7.60205e-12 0 0)
(7.53288e-12 0 0)
(3.7288e-12 0 0)
(5.56411e-12 0 0)
(5.52339e-12 0 0)
(5.74859e-12 0 0)
(9.4616e-12 0 0)
(5.61075e-12 0 0)
(6.4842e-12 0 0)
(4.54199e-12 0 0)
(8.93866e-12 0 0)
(8.88775e-12 0 0)
(1.12216e-11 0 0)
(6.12224e-12 0 0)
(7.95079e-12 0 0)
(3.78769e-12 0 0)
(5.40876e-12 0 0)
(-7.19886e-14 0 0)
(5.48485e-12 0 0)
(4.16734e-12 0 0)
(5.55776e-12 0 0)
(4.01193e-12 0 0)
(4.83852e-12 0 0)
(6.12932e-12 0 0)
(8.10313e-12 0 0)
(8.73481e-12 0 0)
(7.8348e-12 0 0)
(6.6189e-12 0 0)
(4.87e-12 0 0)
(7.08276e-12 0 0)
(7.20201e-12 0 0)
(1.07018e-11 0 0)
(7.33553e-12 0 0)
(1.2557e-11 0 0)
(6.26019e-12 0 0)
(1.09586e-11 0 0)
(9.39375e-12 0 0)
(1.37354e-11 0 0)
(1.04448e-11 0 0)
(1.4401e-11 0 0)
(7.77145e-12 0 0)
(1.16891e-11 0 0)
(5.37987e-12 0 0)
(8.56079e-12 0 0)
(8.54333e-12 0 0)
(1.14383e-11 0 0)
(9.78414e-12 0 0)
(1.03584e-11 0 0)
(1.18788e-11 0 0)
(9.65086e-12 0 0)
(1.14506e-11 0 0)
(8.51571e-12 0 0)
(9.4086e-12 0 0)
(4.11577e-12 0 0)
(5.97615e-12 0 0)
(1.24293e-12 0 0)
(3.63748e-12 0 0)
(5.3718e-13 0 0)
(4.3007e-12 0 0)
(1.13524e-12 0 0)
(5.72899e-12 0 0)
(4.23144e-12 0 0)
(5.64422e-12 0 0)
(8.28874e-13 0 0)
(5.7253e-12 0 0)
(6.90971e-12 0 0)
(8.41005e-12 0 0)
(6.33215e-12 0 0)
(8.42652e-12 0 0)
(4.88969e-12 0 0)
(7.72123e-12 0 0)
(8.79519e-12 0 0)
(9.32388e-12 0 0)
(5.61791e-12 0 0)
(5.51969e-12 0 0)
(4.23396e-12 0 0)
(7.1307e-12 0 0)
(5.31159e-12 0 0)
(4.48673e-12 0 0)
(4.02607e-12 0 0)
(5.37296e-12 0 0)
(4.14886e-12 0 0)
(2.08186e-12 0 0)
(3.76216e-12 0 0)
(1.28132e-12 0 0)
(1.38771e-12 0 0)
(1.08779e-12 0 0)
(5.10887e-12 0 0)
(5.60174e-12 0 0)
(4.6355e-12 0 0)
(4.95175e-12 0 0)
(9.11938e-12 0 0)
(7.30053e-12 0 0)
(1.1094e-11 0 0)
(7.64296e-12 0 0)
(1.1223e-11 0 0)
(8.39382e-12 0 0)
(1.01241e-11 0 0)
(9.21991e-12 0 0)
(1.26775e-11 0 0)
(1.17198e-11 0 0)
(1.26454e-11 0 0)
(1.07758e-11 0 0)
(9.72162e-12 0 0)
(6.98244e-12 0 0)
(1.1268e-11 0 0)
(2.05918e-11 0 0)
(4.13887e-11 0 0)
(8.8976e-11 0 0)
(1.9892e-10 0 0)
(4.42014e-10 0 0)
(9.6961e-10 0 0)
(2.10623e-09 0 0)
(4.52845e-09 0 0)
(9.64467e-09 0 0)
(2.03461e-08 0 0)
(4.25371e-08 0 0)
(8.81224e-08 0 0)
(1.80894e-07 0 0)
(3.67896e-07 0 0)
(7.41213e-07 0 0)
(1.47914e-06 0 0)
(2.92318e-06 0 0)
(5.72017e-06 0 0)
(1.10813e-05 0 0)
(2.12478e-05 0 0)
(4.0318e-05 0 0)
(7.56917e-05 0 0)
(0.000140561 0 0)
(0.000258136 0 0)
(0.000468691 0 0)
(0.000841128 0 0)
(0.00149159 0 0)
(0.00261287 0 0)
(0.0045198 0 0)
(0.0077179 0 0)
(0.0130044 0 0)
(0.0216129 0 0)
(0.0354136 0 0)
(0.0571802 0 0)
(0.0909304 0 0)
(0.142334 0 0)
(0.219167 0 0)
(0.331752 0 0)
(0.493299 0 0)
(0.719996 0 0)
(1.03065 0 0)
(1.44564 0 0)
(1.98475 0 0)
(2.66329 0 0)
(3.48578 0 0)
(4.44311 0 0)
(5.52014 0 0)
(6.70388 0 0)
(7.98386 0 0)
(9.35016 0 0)
(10.7928 0 0)
(12.3023 0 0)
(13.8696 0 0)
(15.4868 0 0)
(17.1466 0 0)
(18.843 0 0)
(20.571 0 0)
(22.326 0 0)
(24.1046 0 0)
(25.9036 0 0)
(27.7206 0 0)
(29.5532 0 0)
(31.3999 0 0)
(33.2589 0 0)
(35.1289 0 0)
(37.0089 0 0)
(38.8979 0 0)
(40.7949 0 0)
(42.6993 0 0)
(44.6104 0 0)
(46.5275 0 0)
(48.4502 0 0)
(50.378 0 0)
(52.3105 0 0)
(54.2473 0 0)
(56.1879 0 0)
(58.1322 0 0)
(60.0798 0 0)
(62.0303 0 0)
(63.9837 0 0)
(65.9396 0 0)
(67.8977 0 0)
(69.858 0 0)
(71.8201 0 0)
(73.7839 0 0)
(75.7492 0 0)
(77.7158 0 0)
(79.6835 0 0)
(81.6521 0 0)
(83.6216 0 0)
(85.5916 0 0)
(87.5621 0 0)
(89.5329 0 0)
(91.5039 0 0)
(93.4748 0 0)
(95.4454 0 0)
(97.4158 0 0)
(99.3855 0 0)
(101.355 0 0)
(103.323 0 0)
(105.29 0 0)
(107.256 0 0)
(109.22 0 0)
(111.183 0 0)
(113.144 0 0)
(115.103 0 0)
(117.06 0 0)
(119.014 0 0)
(120.965 0 0)
(122.913 0 0)
(124.859 0 0)
(126.8 0 0)
(128.738 0 0)
(130.671 0 0)
(132.6 0 0)
(134.524 0 0)
(136.443 0 0)
(138.356 0 0)
(140.263 0 0)
(142.164 0 0)
(144.057 0 0)
(145.943 0 0)
(147.82 0 0)
(149.688 0 0)
(151.547 0 0)
(153.396 0 0)
(155.233 0 0)
(157.059 0 0)
(158.871 0 0)
(160.669 0 0)
(162.453 0 0)
(164.22 0 0)
(165.969 0 0)
(167.699 0 0)
(169.409 0 0)
(171.096 0 0)
(172.759 0 0)
(174.396 0 0)
(176.004 0 0)
(177.581 0 0)
(179.126 0 0)
(180.633 0 0)
(182.102 0 0)
(183.529 0 0)
(184.91 0 0)
(186.243 0 0)
(187.522 0 0)
(188.745 0 0)
(189.908 0 0)
(191.005 0 0)
(192.036 0 0)
(192.994 0 0)
(193.878 0 0)
(194.686 0 0)
(195.413 0 0)
(196.06 0 0)
(196.627 0 0)
(197.116 0 0)
(197.527 0 0)
(197.866 0 0)
(198.139 0 0)
(198.349 0 0)
(198.505 0 0)
(198.616 0 0)
(198.69 0 0)
(198.732 0 0)
(198.751 0 0)
(198.759 0 0)
(198.76 0 0)
(198.759 0 0)
(198.757 0 0)
(198.75 0 0)
(198.736 0 0)
(198.714 0 0)
(198.687 0 0)
(198.663 0 0)
(198.642 0 0)
(198.625 0 0)
(198.613 0 0)
(198.604 0 0)
(198.598 0 0)
(198.594 0 0)
(198.591 0 0)
(198.59 0 0)
(198.588 0 0)
(198.588 0 0)
(198.587 0 0)
(198.586 0 0)
(198.585 0 0)
(198.584 0 0)
(198.583 0 0)
(198.582 0 0)
(198.581 0 0)
(198.58 0 0)
(198.58 0 0)
(198.579 0 0)
(198.579 0 0)
(198.578 0 0)
(198.578 0 0)
(198.577 0 0)
(198.576 0 0)
(198.575 0 0)
(198.575 0 0)
(198.574 0 0)
(198.573 0 0)
(198.572 0 0)
(198.572 0 0)
(198.571 0 0)
(198.571 0 0)
(198.57 0 0)
(198.569 0 0)
(198.568 0 0)
(198.568 0 0)
(198.567 0 0)
(198.567 0 0)
(198.566 0 0)
(198.565 0 0)
(198.565 0 0)
(198.564 0 0)
(198.564 0 0)
(198.563 0 0)
(198.562 0 0)
(198.562 0 0)
(198.561 0 0)
(198.561 0 0)
(198.56 0 0)
(198.56 0 0)
(198.559 0 0)
(198.559 0 0)
(198.558 0 0)
(198.558 0 0)
(198.557 0 0)
(198.556 0 0)
(198.556 0 0)
(198.555 0 0)
(198.555 0 0)
(198.554 0 0)
(198.553 0 0)
(198.553 0 0)
(198.552 0 0)
(198.552 0 0)
(198.551 0 0)
(198.551 0 0)
(198.55 0 0)
(198.55 0 0)
(198.549 0 0)
(198.549 0 0)
(198.548 0 0)
(198.548 0 0)
(198.547 0 0)
(198.547 0 0)
(198.546 0 0)
(198.545 0 0)
(198.545 0 0)
(198.544 0 0)
(198.544 0 0)
(198.543 0 0)
(198.543 0 0)
(198.542 0 0)
(198.542 0 0)
(198.541 0 0)
(198.541 0 0)
(198.541 0 0)
(198.54 0 0)
(198.54 0 0)
(198.54 0 0)
(198.54 0 0)
(198.539 0 0)
(198.539 0 0)
(198.538 0 0)
(198.538 0 0)
(198.538 0 0)
(198.539 0 0)
(198.539 0 0)
(198.538 0 0)
(198.538 0 0)
(198.537 0 0)
(198.537 0 0)
(198.537 0 0)
(198.536 0 0)
(198.54 0 0)
(198.552 0 0)
(198.567 0 0)
(198.596 0 0)
(198.677 0 0)
(198.849 0 0)
(198.9 0 0)
(198.749 0 0)
(198.595 0 0)
(198.495 0 0)
(198.468 0 0)
(198.489 0 0)
(198.501 0 0)
(198.492 0 0)
(198.494 0 0)
(198.525 0 0)
(198.547 0 0)
(198.529 0 0)
(198.505 0 0)
(198.521 0 0)
(198.552 0 0)
(198.544 0 0)
(198.51 0 0)
(198.507 0 0)
(198.542 0 0)
(198.555 0 0)
(198.522 0 0)
(198.493 0 0)
(198.513 0 0)
(198.545 0 0)
(198.533 0 0)
(198.497 0 0)
(198.497 0 0)
(198.532 0 0)
(198.542 0 0)
(198.509 0 0)
(198.488 0 0)
(198.517 0 0)
(198.548 0 0)
(198.53 0 0)
(198.491 0 0)
(198.495 0 0)
(198.532 0 0)
(198.541 0 0)
(198.508 0 0)
(198.487 0 0)
(198.513 0 0)
(198.541 0 0)
(198.52 0 0)
(198.485 0 0)
(198.497 0 0)
(198.536 0 0)
(198.535 0 0)
(198.494 0 0)
(198.48 0 0)
(198.515 0 0)
(198.542 0 0)
(198.516 0 0)
(198.478 0 0)
(198.488 0 0)
(198.526 0 0)
(198.528 0 0)
(198.491 0 0)
(198.475 0 0)
(198.504 0 0)
(198.529 0 0)
(198.502 0 0)
(198.467 0 0)
(198.484 0 0)
(198.522 0 0)
(198.511 0 0)
(198.467 0 0)
(198.46 0 0)
(198.499 0 0)
(198.516 0 0)
(198.477 0 0)
(198.443 0 0)
(198.466 0 0)
(198.503 0 0)
(198.486 0 0)
(198.438 0 0)
(198.432 0 0)
(198.469 0 0)
(198.481 0 0)
(198.439 0 0)
(198.404 0 0)
(198.425 0 0)
(198.457 0 0)
(198.432 0 0)
(198.381 0 0)
(198.375 0 0)
(198.409 0 0)
(198.412 0 0)
(198.361 0 0)
(198.323 0 0)
(198.342 0 0)
(198.366 0 0)
(198.329 0 0)
(198.269 0 0)
(198.259 0 0)
(198.285 0 0)
(198.274 0 0)
(198.211 0 0)
(198.166 0 0)
(198.173 0 0)
(198.181 0 0)
(198.128 0 0)
(198.057 0 0)
(198.032 0 0)
(198.038 0 0)
(198.004 0 0)
(197.923 0 0)
(197.861 0 0)
(197.843 0 0)
(197.821 0 0)
(197.741 0 0)
(197.647 0 0)
(197.592 0 0)
(197.56 0 0)
(197.485 0 0)
(197.36 0 0)
(197.253 0 0)
(197.183 0 0)
(197.108 0 0)
(196.96 0 0)
(196.786 0 0)
(196.661 0 0)
(196.568 0 0)
(196.406 0 0)
(196.151 0 0)
(195.927 0 0)
(195.773 0 0)
(195.587 0 0)
(195.243 0 0)
(194.86 0 0)
(194.57 0 0)
(194.323 0 0)
(193.91 0 0)
(193.303 0 0)
(192.655 0 0)
(191.988 0 0)
(191.225 0 0)
(189.363 0 0)
(184.985 0 0)
(174.644 0 0)
(139.833 0 0)
(70.5202 0 0)
(20.26 0 0)
(5.15353 0 0)
(1.24156 0 0)
(0.29483 0 0)
(0.0697546 0 0)
(0.0164834 0 0)
(0.00389365 0 0)
(0.000919635 0 0)
(0.000217198 0 0)
(5.12963e-05 0 0)
(1.21143e-05 0 0)
(2.86082e-06 0 0)
(6.75553e-07 0 0)
(1.59512e-07 0 0)
(3.76607e-08 0 0)
(8.88435e-09 0 0)
(2.09384e-09 0 0)
(4.88477e-10 0 0)
(1.14573e-10 0 0)
(2.22719e-11 0 0)
(5.31163e-12 0 0)
(-1.76251e-12 0 0)
(-3.26398e-13 0 0)
(-4.95091e-12 0 0)
(-3.22138e-12 0 0)
(-1.75079e-12 0 0)
(-1.83219e-12 0 0)
(-1.96242e-12 0 0)
(4.31278e-14 0 0)
(-9.11858e-13 0 0)
(-2.78794e-12 0 0)
(-4.29347e-12 0 0)
(-5.83152e-12 0 0)
(-6.68868e-12 0 0)
(-7.88737e-12 0 0)
(-1.29532e-12 0 0)
(-4.94067e-12 0 0)
(-1.49937e-12 0 0)
(-4.99619e-12 0 0)
(-2.50792e-12 0 0)
(-4.06841e-12 0 0)
(-2.85108e-12 0 0)
(-5.0287e-12 0 0)
(-2.67027e-12 0 0)
(-2.88436e-12 0 0)
(-1.08635e-12 0 0)
(-2.66731e-12 0 0)
(-4.62852e-12 0 0)
(-5.42767e-12 0 0)
(-6.44053e-12 0 0)
(-6.20601e-12 0 0)
(-5.72301e-12 0 0)
(-3.28802e-12 0 0)
(-1.81475e-12 0 0)
(-2.0403e-12 0 0)
(-5.29579e-12 0 0)
(-4.17636e-12 0 0)
(-7.25829e-12 0 0)
(-6.42653e-12 0 0)
(-5.57174e-12 0 0)
(-3.33514e-12 0 0)
(-2.14675e-12 0 0)
(-1.58112e-13 0 0)
(-3.74623e-12 0 0)
(4.56305e-13 0 0)
(-4.35829e-12 0 0)
(1.93342e-12 0 0)
(4.00144e-12 0 0)
(4.01355e-12 0 0)
(3.77013e-12 0 0)
(3.96076e-12 0 0)
(4.4781e-12 0 0)
(6.63955e-12 0 0)
(5.31373e-12 0 0)
(4.24202e-12 0 0)
(2.82146e-12 0 0)
(2.58575e-13 0 0)
(1.75482e-12 0 0)
(-3.25838e-12 0 0)
(2.83686e-13 0 0)
(-4.49419e-12 0 0)
(-3.12637e-12 0 0)
(-5.68977e-12 0 0)
(-5.69833e-12 0 0)
(-6.10431e-12 0 0)
(-7.55743e-12 0 0)
(-9.24326e-12 0 0)
(-8.78264e-12 0 0)
(-1.21802e-11 0 0)
(-6.2038e-12 0 0)
(-1.04966e-11 0 0)
(-6.69025e-12 0 0)
(-9.78268e-12 0 0)
(-4.20189e-12 0 0)
(-7.22699e-12 0 0)
(-3.92401e-12 0 0)
(-2.83995e-12 0 0)
(4.05012e-13 0 0)
(1.61873e-12 0 0)
(1.78041e-12 0 0)
(2.60671e-12 0 0)
(1.41181e-12 0 0)
(5.07452e-12 0 0)
(3.21932e-12 0 0)
(1.84596e-12 0 0)
(3.01473e-12 0 0)
(5.57541e-12 0 0)
(2.31853e-12 0 0)
(2.94607e-12 0 0)
(3.25888e-12 0 0)
(1.15085e-12 0 0)
(2.04813e-12 0 0)
(3.05335e-12 0 0)
(3.37517e-12 0 0)
(3.85346e-12 0 0)
(6.46734e-12 0 0)
(6.36923e-12 0 0)
(7.18718e-12 0 0)
(9.1775e-12 0 0)
(5.90283e-12 0 0)
(7.26679e-12 0 0)
(6.08985e-12 0 0)
(7.17393e-12 0 0)
(5.54298e-12 0 0)
(4.97597e-12 0 0)
(4.45755e-12 0 0)
(4.25002e-12 0 0)
(4.38485e-12 0 0)
(4.46742e-12 0 0)
(3.77113e-12 0 0)
(3.44649e-12 0 0)
(-6.32712e-13 0 0)
(2.70483e-12 0 0)
(2.59044e-12 0 0)
(4.60863e-12 0 0)
(5.33766e-12 0 0)
(6.70597e-12 0 0)
(8.57531e-12 0 0)
(9.34949e-12 0 0)
(8.87566e-12 0 0)
(1.06391e-11 0 0)
(9.211e-12 0 0)
(1.04583e-11 0 0)
(1.08191e-11 0 0)
(1.02691e-11 0 0)
(1.1017e-11 0 0)
(1.01214e-11 0 0)
(8.87635e-12 0 0)
(7.5737e-12 0 0)
(6.82793e-12 0 0)
(5.06334e-12 0 0)
(5.65264e-12 0 0)
(2.16048e-12 0 0)
(1.69998e-12 0 0)
(1.62493e-12 0 0)
(4.45218e-12 0 0)
(2.07137e-12 0 0)
(1.02944e-12 0 0)
(4.12583e-12 0 0)
(3.64578e-12 0 0)
(3.99226e-12 0 0)
(1.22301e-12 0 0)
(2.1824e-12 0 0)
(1.16194e-12 0 0)
(-2.17054e-12 0 0)
(1.29727e-12 0 0)
(-1.46463e-12 0 0)
(1.36592e-12 0 0)
(-4.30103e-13 0 0)
(1.28889e-12 0 0)
(3.14923e-12 0 0)
(2.20492e-13 0 0)
(4.9271e-12 0 0)
(3.64456e-12 0 0)
(2.96403e-12 0 0)
(-3.09725e-13 0 0)
(6.60593e-13 0 0)
(4.6143e-12 0 0)
(1.50258e-12 0 0)
(4.46763e-12 0 0)
(4.60539e-12 0 0)
(4.29346e-12 0 0)
(5.52635e-12 0 0)
(1.67396e-12 0 0)
(2.86418e-12 0 0)
(3.48058e-13 0 0)
(4.72123e-13 0 0)
(-3.42059e-13 0 0)
(6.01014e-14 0 0)
(-1.76949e-12 0 0)
(2.60143e-13 0 0)
(1.94509e-12 0 0)
(5.32708e-12 0 0)
(4.85755e-12 0 0)
(6.38071e-12 0 0)
(1.23095e-12 0 0)
(5.60941e-12 0 0)
(4.93854e-12 0 0)
(6.28897e-12 0 0)
(7.51543e-12 0 0)
(5.18923e-12 0 0)
(8.54844e-12 0 0)
(8.79476e-12 0 0)
(9.80145e-12 0 0)
(9.07185e-12 0 0)
(1.03901e-11 0 0)
(8.77202e-12 0 0)
(9.38434e-12 0 0)
(9.48126e-12 0 0)
(9.25826e-12 0 0)
(7.04903e-12 0 0)
(1.0802e-11 0 0)
(9.67259e-12 0 0)
(1.11399e-11 0 0)
(1.37946e-11 0 0)
(1.37759e-11 0 0)
(1.28476e-11 0 0)
(1.57319e-11 0 0)
(1.57192e-11 0 0)
(1.38746e-11 0 0)
(1.4033e-11 0 0)
(1.46664e-11 0 0)
(1.41896e-11 0 0)
(1.541e-11 0 0)
(1.74267e-11 0 0)
(1.97453e-11 0 0)
(2.10726e-11 0 0)
(2.35732e-11 0 0)
(2.3961e-11 0 0)
(2.54467e-11 0 0)
(2.41635e-11 0 0)
(2.6568e-11 0 0)
(2.47247e-11 0 0)
(2.77106e-11 0 0)
(2.59272e-11 0 0)
(2.67547e-11 0 0)
(2.54739e-11 0 0)
(2.64135e-11 0 0)
(2.64347e-11 0 0)
(2.85186e-11 0 0)
(2.82254e-11 0 0)
(2.91383e-11 0 0)
(2.88928e-11 0 0)
(2.68896e-11 0 0)
(2.73094e-11 0 0)
(2.75565e-11 0 0)
(2.72445e-11 0 0)
(2.57511e-11 0 0)
(2.3936e-11 0 0)
(2.19312e-11 0 0)
(2.33082e-11 0 0)
(2.22294e-11 0 0)
(2.46168e-11 0 0)
(2.27174e-11 0 0)
(2.34868e-11 0 0)
(1.99583e-11 0 0)
(1.85133e-11 0 0)
(1.5635e-11 0 0)
(1.89063e-11 0 0)
(1.73679e-11 0 0)
(1.88994e-11 0 0)
(1.90146e-11 0 0)
(2.19592e-11 0 0)
(2.2156e-11 0 0)
(2.1228e-11 0 0)
(1.84629e-11 0 0)
(1.7112e-11 0 0)
(1.99975e-11 0 0)
(2.00036e-11 0 0)
(1.96239e-11 0 0)
(1.97172e-11 0 0)
(2.33131e-11 0 0)
(2.31571e-11 0 0)
(2.35623e-11 0 0)
(2.35962e-11 0 0)
(2.65929e-11 0 0)
(2.31236e-11 0 0)
(2.54444e-11 0 0)
(2.14115e-11 0 0)
(2.40534e-11 0 0)
(1.91715e-11 0 0)
(2.09807e-11 0 0)
(2.07143e-11 0 0)
)
;

boundaryField
{
    sides
    {
        type            zeroGradient;
    }
    empty
    {
        type            empty;
    }
}


// ************************************************************************* //
