/*--------------------------------*- C++ -*----------------------------------*\
| =========                 |                                                 |
| \\      /  F ield         | OpenFOAM: The Open Source CFD Toolbox           |
|  \\    /   O peration     | Version:  4.1                                   |
|   \\  /    A nd           | Web:      www.OpenFOAM.org                      |
|    \\/     M anipulation  |                                                 |
\*---------------------------------------------------------------------------*/
FoamFile
{
    version     2.0;
    format      ascii;
    class       volScalarField;
    location    "0.0056";
    object      mag(U);
}
// * * * * * * * * * * * * * * * * * * * * * * * * * * * * * * * * * * * * * //

dimensions      [0 1 -1 0 0 0 0];

internalField   nonuniform List<scalar> 
1000
(
1.46077e-11
1.6675e-11
1.88652e-11
1.85231e-11
2.09809e-11
2.05958e-11
1.9166e-11
1.72916e-11
1.56237e-11
1.44683e-11
1.20611e-11
1.49339e-11
1.33107e-11
1.34058e-11
1.12223e-11
1.40855e-11
1.12791e-11
1.4872e-11
1.17115e-11
1.53788e-11
1.08804e-11
1.62077e-11
1.45959e-11
1.70521e-11
1.47633e-11
1.63149e-11
1.61764e-11
1.84612e-11
1.74001e-11
1.6124e-11
1.83925e-11
1.7966e-11
1.71118e-11
1.64759e-11
1.81754e-11
1.20284e-11
1.5629e-11
1.20668e-11
1.59647e-11
1.36122e-11
1.86498e-11
1.70602e-11
1.85301e-11
1.43364e-11
1.8686e-11
1.48788e-11
1.60217e-11
1.47459e-11
1.52209e-11
1.09497e-11
1.42812e-11
1.22521e-11
1.41181e-11
1.39067e-11
1.07566e-11
1.14946e-11
1.31518e-11
1.44374e-11
1.3295e-11
1.56311e-11
1.26885e-11
1.44842e-11
1.20585e-11
1.23707e-11
9.75218e-12
1.21514e-11
8.54717e-12
1.36615e-11
1.08879e-11
1.39842e-11
7.42939e-12
9.78294e-12
4.34841e-12
7.8786e-12
2.27151e-12
4.92903e-12
1.48562e-12
2.07774e-12
4.18546e-13
1.66257e-12
2.90264e-12
5.37692e-12
3.19863e-12
2.89324e-12
3.99537e-12
3.47942e-13
2.8633e-12
3.00944e-12
2.90723e-12
1.84456e-12
1.83699e-12
5.99122e-12
1.94613e-12
4.46441e-12
4.26622e-13
1.11078e-12
1.29236e-12
4.56954e-12
3.17114e-12
6.80907e-12
5.94053e-12
6.1661e-12
8.35399e-12
6.20716e-12
9.21559e-12
8.11205e-12
8.00543e-12
7.97493e-12
6.10425e-12
8.7719e-12
9.67198e-12
8.25386e-12
8.52283e-12
8.81833e-12
9.97874e-12
1.26285e-11
1.25118e-11
1.10331e-11
1.39985e-11
1.17466e-11
1.23441e-11
1.40637e-11
1.33071e-11
1.34196e-11
1.3063e-11
1.16884e-11
1.20777e-11
1.45852e-11
1.27999e-11
1.5884e-11
1.54545e-11
1.55351e-11
1.61727e-11
1.55736e-11
1.61555e-11
1.70432e-11
1.57301e-11
1.51288e-11
1.57831e-11
1.60692e-11
1.62933e-11
1.84193e-11
1.65213e-11
1.70072e-11
1.52204e-11
1.38135e-11
1.49396e-11
1.39794e-11
1.5152e-11
1.26309e-11
1.46417e-11
1.35134e-11
1.77094e-11
1.47008e-11
1.79211e-11
1.8657e-11
1.874e-11
1.92045e-11
1.79507e-11
2.12336e-11
2.08844e-11
1.83964e-11
1.84044e-11
2.05789e-11
2.19044e-11
2.30727e-11
2.3541e-11
2.31646e-11
2.27711e-11
2.27329e-11
2.2945e-11
2.38327e-11
2.42284e-11
2.51616e-11
2.18294e-11
2.13247e-11
1.90055e-11
2.0574e-11
1.88327e-11
2.28655e-11
2.0658e-11
2.12812e-11
1.93728e-11
1.89542e-11
1.7789e-11
1.69852e-11
1.50385e-11
1.49613e-11
1.36695e-11
1.5254e-11
1.68234e-11
1.21889e-11
1.49757e-11
1.06551e-11
1.50611e-11
1.35145e-11
1.62e-11
1.43466e-11
1.61441e-11
1.26175e-11
1.56563e-11
1.04086e-11
1.17816e-11
8.28946e-12
1.03729e-11
9.99306e-12
1.02618e-11
9.6219e-12
1.19011e-11
1.17735e-11
1.18457e-11
1.29269e-11
1.21065e-11
1.35276e-11
1.20218e-11
1.74963e-11
1.40336e-11
1.68442e-11
1.1155e-11
1.84605e-11
2.33286e-11
4.54805e-11
7.7255e-11
1.55424e-10
3.0359e-10
6.16802e-10
1.23076e-09
2.45496e-09
4.85352e-09
9.53774e-09
1.86039e-08
3.6029e-08
6.92632e-08
1.32166e-07
2.50306e-07
4.70443e-07
8.77388e-07
1.62357e-06
2.98054e-06
5.42764e-06
9.80305e-06
1.75584e-05
3.11832e-05
5.49037e-05
9.58204e-05
0.000165736
0.000284052
0.000482305
0.00081115
0.00135096
0.00222766
0.00363592
0.00587254
0.0093835
0.0148287
0.0231685
0.035777
0.0545833
0.0822422
0.122328
0.179536
0.259879
0.370817
0.521302
0.721638
0.9831
1.31721
1.73455
2.24287
2.84427
3.53364
4.30169
5.13961
6.04032
6.9977
8.006
9.0597
10.1535
11.2827
12.4429
13.6301
14.841
16.0727
17.3226
18.5886
19.8687
21.1614
22.4654
23.7793
25.1023
26.4335
27.772
29.1173
30.4687
31.8257
33.1878
34.5548
35.9261
37.3015
38.6807
40.0633
41.4493
42.8383
44.2302
45.6248
47.0219
48.4213
49.823
51.2267
52.6324
54.04
55.4492
56.8602
58.2726
59.6865
61.1018
62.5183
63.9361
65.355
66.7749
68.1958
69.6177
71.0404
72.4639
73.8881
75.313
76.7385
78.1646
79.5912
81.0183
82.4457
83.8736
85.3017
86.73
88.1586
89.5873
91.0161
92.4449
93.8738
95.3026
96.7313
98.1598
99.5881
101.016
102.444
103.871
105.298
106.725
108.151
109.576
111.001
112.425
113.848
115.27
116.692
118.112
119.532
120.95
122.367
123.783
125.197
126.61
128.022
129.431
130.839
132.245
133.65
135.052
136.451
137.849
139.244
140.636
142.026
143.412
144.796
146.176
147.553
148.926
150.295
151.659
153.019
154.375
155.725
157.071
158.41
159.743
161.07
162.39
163.703
165.008
166.305
167.592
168.871
170.139
171.396
172.641
173.874
175.094
176.299
177.488
178.662
179.817
180.954
182.07
183.164
184.235
185.28
186.299
187.289
188.248
189.174
190.065
190.92
191.734
192.508
193.239
193.924
194.563
195.153
195.694
196.185
196.625
197.016
197.358
197.652
197.902
198.109
198.277
198.41
198.512
198.587
198.64
198.674
198.693
198.703
198.705
198.705
198.705
198.703
198.699
198.691
198.677
198.662
198.647
198.633
198.621
198.612
198.605
198.6
198.597
198.594
198.593
198.592
198.591
198.59
198.589
198.588
198.588
198.587
198.586
198.586
198.585
198.584
198.584
198.583
198.582
198.582
198.581
198.581
198.58
198.579
198.579
198.578
198.578
198.577
198.576
198.576
198.575
198.575
198.574
198.574
198.573
198.573
198.572
198.572
198.571
198.571
198.57
198.57
198.569
198.569
198.568
198.567
198.567
198.566
198.566
198.565
198.565
198.565
198.564
198.563
198.563
198.562
198.562
198.561
198.561
198.56
198.56
198.559
198.559
198.558
198.558
198.557
198.557
198.557
198.556
198.556
198.555
198.555
198.555
198.554
198.554
198.554
198.553
198.553
198.553
198.553
198.552
198.552
198.552
198.552
198.552
198.551
198.551
198.551
198.551
198.551
198.551
198.55
198.55
198.55
198.55
198.55
198.55
198.549
198.549
198.549
198.549
198.549
198.548
198.548
198.548
198.548
198.548
198.547
198.547
198.547
198.547
198.546
198.546
198.546
198.546
198.545
198.545
198.545
198.545
198.544
198.544
198.544
198.544
198.543
198.543
198.542
198.542
198.542
198.542
198.542
198.541
198.541
198.541
198.54
198.54
198.54
198.54
198.54
198.539
198.539
198.539
198.539
198.539
198.539
198.539
198.539
198.539
198.539
198.539
198.539
198.539
198.539
198.539
198.539
198.539
198.542
198.55
198.567
198.622
198.756
198.84
198.757
198.626
198.541
198.487
198.466
198.487
198.516
198.519
198.506
198.516
198.543
198.55
198.529
198.517
198.536
198.554
198.537
198.513
198.526
198.556
198.55
198.517
198.512
198.542
198.556
198.527
198.502
198.522
198.552
198.54
198.508
198.507
198.538
198.549
198.521
198.501
198.524
198.551
198.534
198.503
198.51
198.543
198.544
198.511
198.5
198.531
198.552
198.526
198.497
198.515
198.548
198.539
198.502
198.499
198.536
198.552
198.521
198.494
198.514
198.546
198.537
198.502
198.5
198.533
198.546
198.515
198.492
198.517
198.547
198.53
198.496
198.5
198.535
198.542
198.508
198.49
198.521
198.546
198.521
198.487
198.503
198.541
198.536
198.495
198.487
198.524
198.544
198.512
198.48
198.502
198.539
198.529
198.488
198.484
198.522
198.537
198.503
198.475
198.501
198.535
198.517
198.477
198.48
198.52
198.528
198.489
198.465
198.496
198.527
198.504
198.463
198.471
198.511
198.512
198.47
198.451
198.484
198.51
198.48
198.44
198.454
198.492
198.484
198.439
198.424
198.458
198.477
198.44
198.401
198.417
198.45
198.433
198.384
198.374
198.407
198.413
198.366
198.329
198.348
198.373
198.339
198.283
198.277
198.306
198.295
198.234
198.195
198.21
198.221
198.17
198.105
198.092
198.107
198.075
198.001
197.953
197.951
197.936
197.863
197.786
197.753
197.738
197.675
197.576
197.505
197.469
197.414
197.3
197.182
197.107
197.045
196.919
196.742
196.605
196.51
196.38
196.15
195.918
195.761
195.616
195.334
194.956
194.665
194.456
194.104
193.528
193.02
192.641
192.065
190.895
188.932
185.478
176.898
146.588
79.7026
23.9416
6.17229
1.49664
0.356459
0.0844424
0.0199749
0.00472355
0.00111696
0.000264128
6.24583e-05
1.47692e-05
3.49233e-06
8.25779e-07
1.95258e-07
4.61701e-08
1.09182e-08
2.58202e-09
6.11878e-10
1.46684e-10
3.86351e-11
1.04491e-11
4.20077e-12
1.25915e-12
2.35474e-12
5.84529e-12
3.99373e-12
7.14475e-12
7.82983e-12
5.77103e-12
5.33213e-12
5.11986e-12
6.03829e-12
5.63632e-12
7.82881e-12
8.50233e-12
8.21854e-12
1.02537e-11
7.63139e-12
6.54631e-12
2.62894e-12
3.35448e-12
4.60939e-12
8.07414e-12
5.77899e-12
1.16869e-11
8.58331e-12
1.02078e-11
6.48916e-12
7.79896e-12
7.72874e-12
5.06352e-12
6.96198e-12
3.86734e-12
2.49996e-12
3.39544e-12
2.47207e-12
3.75323e-12
4.85549e-12
6.4603e-12
5.15256e-12
6.8348e-12
6.72094e-12
5.37828e-12
7.07453e-12
7.15248e-12
7.76523e-12
3.73729e-12
4.38833e-12
4.06794e-12
6.11165e-12
4.59869e-12
5.11675e-12
5.03377e-12
6.77203e-12
8.6181e-12
6.36222e-12
9.32703e-12
8.46818e-12
8.00873e-12
8.25256e-12
1.02516e-11
1.22088e-11
1.28533e-11
1.519e-11
1.31055e-11
1.63431e-11
1.72631e-11
1.84713e-11
2.06705e-11
2.12002e-11
2.24098e-11
2.20552e-11
2.39327e-11
2.26567e-11
2.46055e-11
2.29185e-11
2.44215e-11
2.55584e-11
2.38947e-11
2.29211e-11
2.49551e-11
2.29815e-11
2.40155e-11
2.20468e-11
2.25112e-11
2.05239e-11
2.10603e-11
2.15096e-11
2.22338e-11
2.0904e-11
2.16384e-11
2.02466e-11
2.02708e-11
2.22237e-11
2.0016e-11
2.01085e-11
2.02709e-11
2.00813e-11
2.01526e-11
2.18865e-11
2.09892e-11
2.45421e-11
2.54667e-11
2.69681e-11
2.51477e-11
2.73914e-11
2.302e-11
2.36597e-11
2.01439e-11
2.08869e-11
2.1869e-11
2.35464e-11
2.19739e-11
2.0247e-11
2.05126e-11
2.37566e-11
2.32044e-11
2.26711e-11
2.60322e-11
2.57213e-11
2.58923e-11
2.70282e-11
2.51763e-11
2.8718e-11
2.77152e-11
2.999e-11
2.93345e-11
3.17297e-11
3.11804e-11
3.17195e-11
3.21252e-11
3.31378e-11
3.27049e-11
3.00758e-11
2.76328e-11
2.87235e-11
3.06407e-11
3.08217e-11
3.0908e-11
2.93762e-11
3.20807e-11
3.22187e-11
3.03685e-11
2.8157e-11
2.62973e-11
2.37434e-11
2.50032e-11
2.59368e-11
2.96024e-11
2.91814e-11
3.20227e-11
3.10897e-11
3.39638e-11
3.29763e-11
3.34449e-11
3.26166e-11
3.16014e-11
3.20507e-11
3.05761e-11
2.88012e-11
2.91696e-11
3.05566e-11
2.74105e-11
2.46438e-11
2.20866e-11
2.37575e-11
2.17521e-11
2.20061e-11
2.085e-11
2.09353e-11
1.82262e-11
2.18206e-11
2.05981e-11
2.51755e-11
2.08653e-11
2.40018e-11
2.40314e-11
)
;

boundaryField
{
    sides
    {
        type            calculated;
        value           nonuniform List<scalar> 2(2.40314e-11 1.46077e-11);
    }
    empty
    {
        type            empty;
    }
}


// ************************************************************************* //
