/*--------------------------------*- C++ -*----------------------------------*\
| =========                 |                                                 |
| \\      /  F ield         | OpenFOAM: The Open Source CFD Toolbox           |
|  \\    /   O peration     | Version:  4.1                                   |
|   \\  /    A nd           | Web:      www.OpenFOAM.org                      |
|    \\/     M anipulation  |                                                 |
\*---------------------------------------------------------------------------*/
FoamFile
{
    version     2.0;
    format      ascii;
    class       volScalarField;
    location    "0.0056";
    object      p;
}
// * * * * * * * * * * * * * * * * * * * * * * * * * * * * * * * * * * * * * //

dimensions      [1 -1 -2 0 0 0 0];

internalField   nonuniform List<scalar> 
1000
(
100000
100000
100000
100000
100000
100000
100000
100000
100000
100000
100000
100000
100000
100000
100000
100000
100000
100000
100000
100000
100000
100000
100000
100000
100000
100000
100000
100000
100000
100000
100000
100000
100000
100000
100000
100000
100000
100000
100000
100000
100000
100000
100000
100000
100000
100000
100000
100000
100000
100000
100000
100000
100000
100000
100000
100000
100000
100000
100000
100000
100000
100000
100000
100000
100000
100000
100000
100000
100000
100000
100000
100000
100000
100000
100000
100000
100000
100000
100000
100000
100000
100000
100000
100000
100000
100000
100000
100000
100000
100000
100000
100000
100000
100000
100000
100000
100000
100000
100000
100000
100000
100000
100000
100000
100000
100000
100000
100000
100000
100000
100000
100000
100000
100000
100000
100000
100000
100000
100000
100000
100000
100000
100000
100000
100000
100000
100000
100000
100000
100000
100000
100000
100000
100000
100000
100000
100000
100000
100000
100000
100000
100000
100000
100000
100000
100000
100000
100000
100000
100000
100000
100000
100000
100000
100000
100000
100000
100000
100000
100000
100000
100000
100000
100000
100000
100000
100000
100000
100000
100000
100000
100000
100000
100000
100000
100000
100000
100000
100000
100000
100000
100000
100000
100000
100000
100000
100000
100000
100000
100000
100000
100000
100000
100000
100000
100000
100000
100000
100000
100000
100000
100000
100000
100000
100000
100000
100000
100000
100000
100000
100000
100000
100000
100000
100000
100000
100000
100000
100000
100000
100000
100000
100000
100000
100000
100000
100000
100000
100000
100000
100000
100000
100000
100000
100000
100000
100000
100000
100000
100000
100000
100000
100000
100000
100000
99999.9
99999.9
99999.8
99999.7
99999.5
99999.2
99998.7
99998
99996.8
99994.9
99992
99987.6
99981.1
99971.5
99957.7
99937.8
99909.9
99871.4
99819.2
99749.6
99658.7
99542.6
99397.4
99220.6
99011.2
98771.5
98505.3
98215.8
97905.6
97576.9
97231.9
96872.5
96500.8
96118.4
95727
95328
94922.5
94511.7
94096.4
93677.4
93255.4
92831
92404.6
91976.7
91547.7
91117.7
90687.1
90256.2
89825.1
89394.1
88963.2
88532.6
88102.5
87672.9
87244
86815.8
86388.4
85961.9
85536.4
85111.9
84688.4
84266.1
83844.9
83424.9
83006.1
82588.6
82172.5
81757.6
81344.1
80932
80521.3
80112
79704.2
79297.8
78892.9
78489.5
78087.7
77687.3
77288.5
76891.2
76495.6
76101.5
75708.9
75318
74928.7
74541
74154.9
73770.5
73387.7
73006.6
72627.1
72249.3
71873.1
71498.7
71125.9
70754.8
70385.4
70017.8
69651.8
69287.5
68925
68564.2
68205.2
67847.9
67492.3
67138.5
66786.5
66436.2
66087.7
65741
65396.1
65053
64711.7
64372.2
64034.6
63698.8
63364.9
63032.8
62702.6
62374.3
62047.9
61723.4
61400.8
61080.2
60761.5
60444.9
60130.2
59817.6
59507
59198.5
58892.1
58587.9
58285.8
57985.9
57688.2
57392.9
57099.8
56809.1
56520.8
56234.9
55951.6
55670.8
55392.7
55117.3
54844.7
54575
54308.3
54044.6
53784.1
53526.9
53273.1
53022.9
52776.3
52533.6
52294.8
52060.5
51830.3
51605
51384.2
51168.9
50958.5
50754
50555.4
50362.9
50177.1
49998
49826.2
49662
49505.6
49357.6
49217.9
49087.2
48965.7
48853.4
48750.6
48657.4
48573.8
48499.6
48434.7
48378.7
48331.4
48291.8
48259.7
48234.4
48214.7
48200.2
48190
48183.2
48179.5
48177.4
48177.1
48177.1
48177.2
48177.5
48178.2
48179.5
48181.7
48184.6
48187.4
48189.9
48192.1
48193.8
48195.1
48196
48196.6
48197.1
48197.4
48197.7
48197.9
48198
48198.1
48198.2
48198.3
48198.4
48198.6
48198.7
48198.8
48198.9
48199
48199.1
48199.2
48199.3
48199.4
48199.5
48199.6
48199.7
48199.8
48199.9
48199.9
48200
48200.1
48200.2
48200.3
48200.4
48200.5
48200.6
48200.6
48200.7
48200.8
48200.9
48201
48201
48201.1
48201.2
48201.3
48201.4
48201.4
48201.5
48201.6
48201.6
48201.7
48201.8
48201.9
48202
48202
48202.1
48202.2
48202.2
48202.3
48202.4
48202.5
48202.5
48202.6
48202.7
48202.8
48202.8
48202.9
48203
48203
48203.1
48203.1
48203.2
48203.2
48203.3
48203.3
48203.3
48203.4
48203.4
48203.4
48203.5
48203.5
48203.5
48203.6
48203.6
48203.6
48203.6
48203.6
48203.7
48203.7
48203.7
48203.7
48203.7
48203.7
48203.7
48203.7
48203.7
48203.7
48203.7
48203.7
48203.7
48203.7
48203.7
48203.7
48203.8
48203.8
48203.8
48203.8
48203.8
48203.9
48203.9
48203.9
48203.9
48203.9
48203.9
48204
48204
48203.9
48204
48204.1
48204.1
48204.1
48204.1
48204.1
48204.2
48204.2
48204.2
48204.2
48204.2
48204.2
48204.3
48204.2
48204.2
48204.3
48204.3
48204.3
48204.2
48204.2
48204.2
48204.2
48204.1
48204.1
48204.1
48204.1
48204.1
48204.1
48203.9
48203.9
48204
48203.9
48203.8
48203.7
48203.8
48203.8
48203.7
48203.4
48203.3
48203.6
48204.6
48205.5
48205.2
48204.4
48207.2
48217
48191.6
48202.6
48206.4
48200.1
48196.7
48207.3
48212.3
48206.3
48197.3
48200.8
48212.1
48211.7
48199.1
48196.9
48208.6
48213.5
48203.4
48194.9
48202.1
48215.2
48210.5
48194.2
48194.9
48212.9
48215.7
48199.6
48192.9
48205.3
48215.7
48208.8
48194
48196.3
48213.1
48214.6
48198.4
48193.2
48206.6
48215.7
48206.2
48192.9
48198.5
48214.7
48212.9
48194.9
48193.3
48210.5
48216.3
48202
48191.7
48202.1
48216.5
48210.3
48192.2
48193.9
48213.3
48216.7
48200
48191.4
48202.6
48215.7
48209.9
48193.1
48194.7
48212.7
48215.1
48198.1
48191.4
48205.3
48216.3
48207
48191.8
48196.1
48214
48214
48195.6
48191.5
48208.4
48216.6
48202.6
48190
48199.7
48216.2
48211.7
48191.9
48191.4
48211.5
48216.8
48199.2
48189
48201.5
48216.3
48209.6
48190.8
48192
48212.1
48215.6
48196.7
48188.6
48203.6
48216.2
48205.9
48188.8
48193.4
48213.6
48214
48193.1
48187.6
48205.2
48215.5
48202.4
48187.4
48193.8
48212.8
48211.3
48190
48186.4
48205.6
48213.9
48197.6
48184.4
48193.9
48211.4
48206.7
48185.6
48184.2
48204.1
48210
48191.1
48180.3
48191.9
48207.1
48199
48179
48179.9
48200.1
48202.6
48180.3
48172.2
48187.5
48199.7
48184.5
48166.7
48171.1
48190.7
48188.2
48162.6
48157.5
48173.8
48183
48162.7
48147.5
48151.9
48168.5
48161.6
48136.3
48132.3
48144.7
48150.5
48125.4
48113
48114.6
48126.4
48113.5
48087.7
48083.1
48087.5
48090
48056.5
48041.6
48038.8
48046.3
48024
47986.7
47978.1
47980.6
47979.8
47916
47888.9
47882
47892.4
47835
47760.6
47741.3
47747.3
47725.6
47582.1
47526.8
47507
47506.5
47311.3
47013.6
46521.6
45530.1
42741.8
31844.1
26986.9
25504.8
25121.9
25029
25006.9
25001.6
25000.4
25000.1
25000
25000
25000
25000
25000
25000
25000
25000
25000
25000
25000
25000
25000
25000
25000
25000
25000
25000
25000
25000
25000
25000
25000
25000
25000
25000
25000
25000
25000
25000
25000
25000
25000
25000
25000
25000
25000
25000
25000
25000
25000
25000
25000
25000
25000
25000
25000
25000
25000
25000
25000
25000
25000
25000
25000
25000
25000
25000
25000
25000
25000
25000
25000
25000
25000
25000
25000
25000
25000
25000
25000
25000
25000
25000
25000
25000
25000
25000
25000
25000
25000
25000
25000
25000
25000
25000
25000
25000
25000
25000
25000
25000
25000
25000
25000
25000
25000
25000
25000
25000
25000
25000
25000
25000
25000
25000
25000
25000
25000
25000
25000
25000
25000
25000
25000
25000
25000
25000
25000
25000
25000
25000
25000
25000
25000
25000
25000
25000
25000
25000
25000
25000
25000
25000
25000
25000
25000
25000
25000
25000
25000
25000
25000
25000
25000
25000
25000
25000
25000
25000
25000
25000
25000
25000
25000
25000
25000
25000
25000
25000
25000
25000
25000
25000
25000
25000
25000
25000
25000
25000
25000
25000
25000
25000
25000
25000
25000
25000
25000
25000
25000
25000
25000
25000
25000
25000
25000
25000
25000
)
;

boundaryField
{
    sides
    {
        type            zeroGradient;
    }
    empty
    {
        type            empty;
    }
}


// ************************************************************************* //
