/*--------------------------------*- C++ -*----------------------------------*\
| =========                 |                                                 |
| \\      /  F ield         | OpenFOAM: The Open Source CFD Toolbox           |
|  \\    /   O peration     | Version:  4.1                                   |
|   \\  /    A nd           | Web:      www.OpenFOAM.org                      |
|    \\/     M anipulation  |                                                 |
\*---------------------------------------------------------------------------*/
FoamFile
{
    version     2.0;
    format      ascii;
    class       surfaceScalarField;
    location    "0.0056";
    object      phi;
}
// * * * * * * * * * * * * * * * * * * * * * * * * * * * * * * * * * * * * * //

dimensions      [1 0 -1 0 0 0 0];

internalField   nonuniform List<scalar> 
999
(
-5.48397e-11
-6.24496e-11
-6.45244e-11
-6.87734e-11
-7.42375e-11
-6.81055e-11
-6.14335e-11
-5.83995e-11
-5.41505e-11
-4.39115e-11
-4.79972e-11
-4.82956e-11
-4.83666e-11
-4.05294e-11
-4.54961e-11
-4.51692e-11
-4.68177e-11
-4.39258e-11
-4.88214e-11
-4.4281e-11
-4.84945e-11
-5.34754e-11
-5.48752e-11
-5.66232e-11
-5.28431e-11
-5.47971e-11
-6.24496e-11
-6.06803e-11
-5.95719e-11
-5.87761e-11
-6.3018e-11
-6.23785e-11
-5.64668e-11
-6.21512e-11
-5.30136e-11
-4.68319e-11
-4.68745e-11
-5.03775e-11
-5.03277e-11
-5.65663e-11
-6.19664e-11
-6.41549e-11
-5.49747e-11
-5.89964e-11
-5.72413e-11
-5.26654e-11
-5.48468e-11
-5.3177e-11
-4.45013e-11
-4.47855e-11
-4.59295e-11
-4.49631e-11
-5.04272e-11
-4.33715e-11
-3.76801e-11
-4.29523e-11
-4.77556e-11
-4.90914e-11
-4.91696e-11
-4.84661e-11
-4.92903e-11
-4.42242e-11
-4.45937e-11
-3.65432e-11
-3.93925e-11
-3.48663e-11
-3.99609e-11
-4.11049e-11
-4.52118e-11
-3.60387e-11
-2.99281e-11
-2.40732e-11
-2.14868e-11
-1.88791e-11
-1.13189e-11
-1.21503e-11
-5.45697e-12
-3.64508e-12
-1.6982e-12
-8.33467e-12
-1.39337e-11
-1.59801e-11
-9.64917e-12
-1.2939e-11
-8.1144e-12
-4.86011e-12
-1.06226e-11
-9.76996e-12
-2.36611e-12
7.10543e-14
8.06466e-12
6.09646e-12
4.24194e-12
9.05231e-12
3.11928e-12
3.83693e-12
1.07576e-11
1.2534e-11
1.84102e-11
2.143e-11
2.1636e-11
2.46487e-11
2.50537e-11
2.74838e-11
2.94236e-11
2.91323e-11
2.69438e-11
2.45066e-11
2.51603e-11
3.34097e-11
3.12781e-11
2.91038e-11
2.9921e-11
3.25215e-11
3.92717e-11
4.50129e-11
3.94351e-11
4.56382e-11
4.24976e-11
4.13962e-11
4.76561e-11
4.73435e-11
4.6775e-11
4.5965e-11
4.20854e-11
4.13891e-11
4.59082e-11
4.72014e-11
5.0477e-11
5.45057e-11
5.45697e-11
5.50955e-11
5.47615e-11
5.4861e-11
5.72911e-11
5.7895e-11
5.17701e-11
5.45057e-11
5.69429e-11
5.49889e-11
6.06235e-11
6.03535e-11
5.9913e-11
5.65521e-11
4.8793e-11
4.94254e-11
5.10454e-11
5.13865e-11
4.71161e-11
4.82459e-11
4.86082e-11
5.48113e-11
5.53726e-11
5.79519e-11
6.22506e-11
6.64429e-11
6.47873e-11
6.47091e-11
6.87876e-11
7.32285e-11
6.89866e-11
6.18172e-11
6.834e-11
7.65894e-11
7.6362e-11
8.16698e-11
8.2089e-11
7.75415e-11
8.07887e-11
7.7236e-11
8.22666e-11
8.36096e-11
8.77804e-11
8.03198e-11
7.50617e-11
7.00879e-11
6.85958e-11
6.72955e-11
7.30296e-11
7.86358e-11
7.09335e-11
6.99316e-11
6.5846e-11
6.40128e-11
6.1533e-11
5.67439e-11
5.12657e-11
4.95888e-11
4.95035e-11
5.58629e-11
5.05338e-11
4.77058e-11
4.39329e-11
4.43023e-11
5.05764e-11
5.04201e-11
5.3376e-11
5.3646e-11
4.96101e-11
5.00435e-11
4.46505e-11
3.98899e-11
3.51932e-11
3.05107e-11
3.50724e-11
3.66285e-11
3.3431e-11
3.82769e-11
4.04157e-11
4.03588e-11
4.46505e-11
4.18154e-11
4.55032e-11
4.44942e-11
5.07043e-11
5.60831e-11
5.27152e-11
4.7919e-11
5.01146e-11
6.9619e-11
1.15016e-10
2.03933e-10
3.86336e-10
7.62341e-10
1.52829e-09
3.07193e-09
6.13208e-09
1.21675e-08
2.39779e-08
4.69218e-08
9.11628e-08
1.75826e-07
3.36622e-07
6.39667e-07
1.20635e-06
2.25769e-06
4.19253e-06
7.72433e-06
1.41178e-05
2.55938e-05
4.60162e-05
8.20411e-05
0.000145021
0.000254124
0.000441367
0.000759661
0.00129546
0.00218843
0.00366145
0.00606582
0.00994814
0.0161473
0.0259329
0.0411973
0.0647172
0.100498
0.154218
0.233764
0.349875
0.516828
0.753138
1.08214
1.53229
2.13705
2.93395
3.96273
5.26215
6.86493
8.79015
11.0305
13.5506
16.3117
19.2842
22.4438
25.768
29.2353
32.8253
36.5191
40.2996
44.1513
48.0611
52.0172
56.0096
60.0299
64.0708
68.126
72.1902
76.259
80.3284
84.395
88.4561
92.5092
96.552
100.583
104.6
108.601
112.587
116.554
120.503
124.433
128.342
132.231
136.098
139.943
143.765
147.564
151.339
155.091
158.819
162.522
166.201
169.855
173.483
177.086
180.664
184.216
187.743
191.243
194.718
198.166
201.588
204.984
208.354
211.698
215.015
218.305
221.569
224.807
228.018
231.203
234.361
237.493
240.598
243.677
246.729
249.755
252.754
255.727
258.673
261.593
264.487
267.354
270.195
273.01
275.798
278.561
281.297
284.007
286.691
289.349
291.981
294.587
297.167
299.721
302.249
304.751
307.228
309.679
312.104
314.504
316.878
319.226
321.549
323.846
326.118
328.364
330.585
332.78
334.95
337.094
339.213
341.306
343.374
345.416
347.433
349.424
351.389
353.329
355.243
357.131
358.993
360.829
362.639
364.423
366.18
367.911
369.615
371.292
372.942
374.564
376.158
377.724
379.263
380.771
382.252
383.699
385.124
386.505
387.874
389.185
390.493
391.739
392.971
394.165
395.299
396.448
397.485
398.561
399.538
400.487
401.434
402.255
403.116
403.884
404.585
405.313
405.906
406.489
407.052
407.489
407.94
408.336
408.635
408.943
409.195
409.374
409.554
409.693
409.78
409.859
409.922
409.952
409.968
409.985
409.989
409.983
409.98
409.978
409.975
409.969
409.955
409.944
409.932
409.917
409.906
409.897
409.888
409.882
409.878
409.873
409.871
409.869
409.867
409.865
409.863
409.862
409.859
409.858
409.857
409.855
409.853
409.851
409.85
409.847
409.846
409.844
409.842
409.84
409.839
409.837
409.835
409.833
409.831
409.829
409.827
409.825
409.823
409.821
409.819
409.818
409.815
409.813
409.812
409.809
409.807
409.805
409.804
409.801
409.799
409.797
409.795
409.792
409.79
409.788
409.785
409.783
409.781
409.779
409.776
409.774
409.771
409.768
409.766
409.763
409.76
409.758
409.756
409.753
409.749
409.747
409.744
409.741
409.738
409.735
409.733
409.73
409.726
409.722
409.72
409.717
409.713
409.709
409.706
409.704
409.7
409.696
409.692
409.69
409.687
409.682
409.677
409.674
409.671
409.667
409.661
409.657
409.653
409.65
409.646
409.639
409.633
409.629
409.626
409.621
409.614
409.607
409.601
409.598
409.593
409.586
409.578
409.569
409.563
409.559
409.554
409.546
409.537
409.525
409.516
409.51
409.504
409.498
409.489
409.474
409.459
409.447
409.439
409.438
409.431
409.415
409.393
409.372
409.358
409.352
409.346
409.337
409.319
409.289
409.261
409.241
409.227
409.22
409.21
409.187
409.141
409.093
409.051
409.022
409.006
408.994
408.982
408.96
408.89
408.765
408.648
408.552
408.485
408.446
408.433
408.439
408.495
408.651
408.77
408.815
408.819
408.298
403.748
386.104
364.04
344.47
327.539
313.495
302.635
294.418
288.101
283.166
279.805
277.784
276.296
275.051
274.215
273.884
273.852
273.659
273.252
273.169
273.523
273.571
273.174
273.057
273.35
273.566
273.41
273.098
273.15
273.53
273.565
273.16
273.081
273.41
273.572
273.382
273.107
273.196
273.551
273.551
273.142
273.092
273.5
273.601
273.267
273.08
273.308
273.599
273.496
273.109
273.128
273.57
273.62
273.17
273.054
273.413
273.638
273.461
273.107
273.148
273.565
273.609
273.19
273.087
273.42
273.624
273.416
273.1
273.197
273.595
273.596
273.153
273.085
273.492
273.636
273.344
273.086
273.266
273.626
273.55
273.11
273.095
273.581
273.668
273.217
273.047
273.36
273.658
273.499
273.086
273.116
273.596
273.659
273.175
273.046
273.41
273.656
273.444
273.075
273.154
273.611
273.633
273.125
273.035
273.496
273.672
273.351
273.046
273.198
273.619
273.598
273.103
273.033
273.521
273.662
273.272
273.022
273.238
273.621
273.535
273.057
273.029
273.542
273.644
273.166
272.983
273.27
273.6
273.443
273.007
273.02
273.512
273.582
273.051
272.927
273.293
273.557
273.27
272.898
272.995
273.466
273.454
272.888
272.807
273.278
273.471
272.994
272.736
272.886
273.316
273.21
272.675
272.624
273.059
273.219
272.641
272.481
272.615
272.985
272.782
272.314
272.289
272.604
272.735
272.078
271.997
272.076
272.391
272.062
271.57
271.568
271.757
271.924
270.948
270.816
270.904
271.325
270.594
269.802
269.822
270.199
270.35
268.435
268.223
268.429
269.197
266.941
265.707
265.816
266.567
266.481
260.537
256.523
251.381
232.31
146.598
44.3717
11.9539
2.93856
0.701893
0.166446
0.0393849
0.00931384
0.00220236
0.000520786
0.000123151
2.91213e-05
6.88613e-06
1.62828e-06
3.85013e-07
9.10376e-08
2.15268e-08
5.09069e-09
1.20446e-09
2.86075e-10
7.01217e-11
1.87015e-11
5.74651e-12
2.01794e-12
1.7657e-12
3.31468e-12
4.4178e-12
5.09104e-12
6.20659e-12
6.08757e-12
4.61142e-12
4.78728e-12
4.93827e-12
5.0715e-12
5.6577e-12
7.46248e-12
6.81233e-12
8.35954e-12
7.95985e-12
6.22791e-12
4.30589e-12
2.21512e-12
3.81206e-12
5.54756e-12
5.99343e-12
7.68097e-12
8.97593e-12
8.24052e-12
6.86917e-12
6.68088e-12
6.41442e-12
5.77671e-12
5.10703e-12
4.58655e-12
2.89546e-12
2.4265e-12
2.62546e-12
2.70362e-12
3.90266e-12
4.52971e-12
5.54046e-12
4.8832e-12
5.76605e-12
5.55289e-12
5.08038e-12
6.41798e-12
6.56897e-12
5.21005e-12
3.36797e-12
3.76765e-12
4.3876e-12
4.68603e-12
4.33431e-12
4.32543e-12
5.09637e-12
6.85674e-12
6.28653e-12
6.85851e-12
7.96518e-12
7.37188e-12
6.70397e-12
8.22631e-12
9.65983e-12
1.10312e-11
1.26299e-11
1.18607e-11
1.30402e-11
1.44329e-11
1.57261e-11
1.66906e-11
1.84333e-11
1.87637e-11
1.96572e-11
1.98632e-11
2.04086e-11
2.05524e-11
2.06235e-11
2.00497e-11
2.21032e-11
2.19824e-11
1.99289e-11
2.0961e-11
2.09415e-11
2.01954e-11
2.03908e-11
1.9126e-11
1.83622e-11
1.84155e-11
1.86109e-11
1.88844e-11
1.82823e-11
1.89893e-11
1.79732e-11
1.75149e-11
1.87157e-11
1.8062e-11
1.76605e-11
1.73621e-11
1.79732e-11
1.70193e-11
1.83853e-11
1.87779e-11
1.98792e-11
2.14833e-11
2.29399e-11
2.26841e-11
2.29274e-11
2.15543e-11
2.05933e-11
1.91669e-11
1.75504e-11
1.87228e-11
1.96856e-11
1.98952e-11
1.82165e-11
1.74012e-11
1.93499e-11
2.08065e-11
1.94227e-11
2.14904e-11
2.21991e-11
2.2883e-11
2.32383e-11
2.23892e-11
2.31903e-11
2.49472e-11
2.45617e-11
2.6251e-11
2.63736e-11
2.70823e-11
2.77502e-11
2.76756e-11
2.78018e-11
2.92157e-11
2.71143e-11
2.50928e-11
2.42135e-11
2.59845e-11
2.70486e-11
2.64677e-11
2.6569e-11
2.58176e-11
2.88072e-11
2.70042e-11
2.56559e-11
2.34852e-11
2.17604e-11
2.08296e-11
2.2327e-11
2.44622e-11
2.53078e-11
2.68194e-11
2.71996e-11
2.85336e-11
2.90061e-11
2.86455e-11
2.89386e-11
2.78657e-11
2.75353e-11
2.73186e-11
2.56808e-11
2.48761e-11
2.63984e-11
2.5743e-11
2.20801e-11
2.02736e-11
1.98845e-11
2.03979e-11
1.8499e-11
1.91207e-11
1.74794e-11
1.72804e-11
1.74616e-11
1.86304e-11
2.00604e-11
1.99165e-11
1.92006e-11
2.11529e-11
)
;

boundaryField
{
    sides
    {
        type            calculated;
        value           nonuniform List<scalar> 2(2.08869e-11 5.07628e-11);
    }
    empty
    {
        type            empty;
        value           nonuniform 0();
    }
}


// ************************************************************************* //
