/*--------------------------------*- C++ -*----------------------------------*\
| =========                 |                                                 |
| \\      /  F ield         | OpenFOAM: The Open Source CFD Toolbox           |
|  \\    /   O peration     | Version:  4.1                                   |
|   \\  /    A nd           | Web:      www.OpenFOAM.org                      |
|    \\/     M anipulation  |                                                 |
\*---------------------------------------------------------------------------*/
FoamFile
{
    version     2.0;
    format      ascii;
    class       volScalarField;
    location    "0.0056";
    object      T;
}
// * * * * * * * * * * * * * * * * * * * * * * * * * * * * * * * * * * * * * //

dimensions      [0 0 0 1 0 0 0];

internalField   nonuniform List<scalar> 
1000
(
400
400
400
400
400
400
400
400
400
400
400
400
400
400
400
400
400
400
400
400
400
400
400
400
400
400
400
400
400
400
400
400
400
400
400
400
400
400
400
400
400
400
400
400
400
400
400
400
400
400
400
400
400
400
400
400
400
400
400
400
400
400
400
400
400
400
400
400
400
400
400
400
400
400
400
400
400
400
400
400
400
400
400
400
400
400
400
400
400
400
400
400
400
400
400
400
400
400
400
400
400
400
400
400
400
400
400
400
400
400
400
400
400
400
400
400
400
400
400
400
400
400
400
400
400
400
400
400
400
400
400
400
400
400
400
400
400
400
400
400
400
400
400
400
400
400
400
400
400
400
400
400
400
400
400
400
400
400
400
400
400
400
400
400
400
400
400
400
400
400
400
400
400
400
400
400
400
400
400
400
400
400
400
400
400
400
400
400
400
400
400
400
400
400
400
400
400
400
400
400
400
400
400
400
400
400
400
400
400
400
400
400
400
400
400
400
400
400
400
400
400
400
400
400
400
400
400
400
400
400
400
400
400
400
400
400
400
400
400
400
400
400
400
400
400
400
400
400
400
399.999
399.999
399.999
399.998
399.996
399.994
399.991
399.986
399.978
399.967
399.951
399.929
399.897
399.853
399.793
399.713
399.609
399.475
399.309
399.105
398.864
398.587
398.279
397.944
397.584
397.202
396.799
396.379
395.943
395.493
395.032
394.56
394.079
393.59
393.094
392.593
392.086
391.574
391.059
390.54
390.017
389.492
388.965
388.435
387.903
387.37
386.834
386.298
385.76
385.221
384.68
384.139
383.597
383.054
382.511
381.966
381.422
380.876
380.33
379.784
379.238
378.691
378.144
377.597
377.049
376.502
375.954
375.406
374.858
374.31
373.762
373.214
372.666
372.119
371.571
371.023
370.476
369.929
369.382
368.835
368.288
367.742
367.196
366.65
366.104
365.559
365.014
364.47
363.926
363.382
362.839
362.296
361.754
361.212
360.671
360.13
359.59
359.05
358.511
357.972
357.434
356.897
356.36
355.824
355.289
354.755
354.221
353.688
353.156
352.625
352.095
351.565
351.037
350.509
349.983
349.457
348.933
348.41
347.887
347.367
346.847
346.329
345.812
345.296
344.782
344.27
343.759
343.25
342.742
342.237
341.733
341.232
340.732
340.235
339.74
339.247
338.757
338.27
337.786
337.305
336.827
336.352
335.881
335.415
334.949
334.495
334.033
333.597
333.13
332.729
332.239
331.894
331.368
331.084
330.539
330.276
329.787
329.455
329.109
328.668
328.439
327.999
327.728
327.449
327.064
326.891
326.569
326.306
326.156
325.861
325.698
325.561
325.334
325.238
325.13
324.977
324.923
324.857
324.766
324.739
324.712
324.667
324.653
324.651
324.64
324.634
324.636
324.639
324.639
324.639
324.641
324.646
324.651
324.655
324.663
324.669
324.672
324.677
324.68
324.681
324.684
324.686
324.687
324.688
324.689
324.69
324.691
324.692
324.693
324.694
324.695
324.696
324.697
324.698
324.7
324.701
324.701
324.703
324.704
324.705
324.706
324.707
324.708
324.709
324.71
324.712
324.713
324.714
324.715
324.717
324.717
324.719
324.72
324.721
324.722
324.724
324.726
324.726
324.728
324.73
324.731
324.732
324.734
324.735
324.736
324.738
324.74
324.741
324.743
324.744
324.746
324.747
324.749
324.751
324.752
324.754
324.757
324.758
324.759
324.762
324.764
324.765
324.767
324.77
324.772
324.774
324.775
324.778
324.781
324.782
324.784
324.786
324.789
324.792
324.793
324.795
324.799
324.802
324.804
324.805
324.808
324.813
324.816
324.817
324.819
324.823
324.828
324.831
324.832
324.835
324.84
324.845
324.849
324.851
324.853
324.857
324.864
324.869
324.872
324.874
324.878
324.884
324.892
324.897
324.9
324.902
324.906
324.914
324.923
324.932
324.937
324.94
324.942
324.949
324.96
324.973
324.983
324.989
324.992
324.995
325.004
325.019
325.036
325.05
325.058
325.062
325.066
325.076
325.098
325.122
325.142
325.155
325.161
325.166
325.177
325.204
325.243
325.281
325.31
325.328
325.337
325.343
325.353
325.386
325.471
325.569
325.657
325.723
325.763
325.78
325.782
325.761
325.666
325.549
325.474
325.451
325.61
327.308
335.588
354.917
376.182
396.852
415.876
432.559
446.569
457.81
466.463
472.89
477.548
480.833
483.04
484.461
485.391
486.012
486.388
486.573
486.669
486.757
486.834
486.842
486.796
486.793
486.845
486.854
486.804
486.776
486.805
486.838
486.82
486.768
486.767
486.817
486.823
486.773
486.75
486.784
486.813
486.788
486.741
486.749
486.799
486.797
486.739
486.727
486.775
486.795
486.754
486.717
486.74
486.787
486.773
486.712
486.709
486.767
486.78
486.731
486.699
486.726
486.768
486.756
486.699
486.698
486.752
486.763
486.712
486.686
486.722
486.758
486.735
486.684
486.689
486.746
486.75
486.693
486.675
486.722
486.751
486.713
486.669
486.69
486.744
486.736
486.672
486.664
486.723
486.743
486.693
486.656
486.687
486.735
486.721
486.659
486.656
486.717
486.732
486.677
486.647
486.686
486.728
486.703
486.646
486.652
486.715
486.722
486.658
486.636
486.684
486.721
486.688
486.637
486.648
486.709
486.71
486.644
486.627
486.682
486.712
486.668
486.623
486.643
486.701
486.694
486.626
486.616
486.674
486.697
486.644
486.605
486.632
486.683
486.666
486.6
486.597
486.659
486.673
486.607
486.577
486.617
486.66
486.623
486.562
486.568
486.63
486.63
486.55
486.53
486.575
486.61
486.555
486.503
486.509
486.562
486.552
486.471
486.458
486.491
486.515
486.442
486.399
486.4
486.438
486.411
486.325
486.31
486.322
486.336
486.235
486.186
486.183
486.206
486.152
486.031
486.003
486.001
486.017
485.842
485.749
485.712
485.755
485.626
485.356
485.297
485.344
485.313
484.816
484.682
484.65
484.628
484.052
483.179
481.551
478.625
472.389
431.331
409.084
402.313
400.558
400.133
400.031
400.007
400.002
400
400
400
400
400
400
400
400
400
400
400
400
400
400
400
400
400
400
400
400
400
400
400
400
400
400
400
400
400
400
400
400
400
400
400
400
400
400
400
400
400
400
400
400
400
400
400
400
400
400
400
400
400
400
400
400
400
400
400
400
400
400
400
400
400
400
400
400
400
400
400
400
400
400
400
400
400
400
400
400
400
400
400
400
400
400
400
400
400
400
400
400
400
400
400
400
400
400
400
400
400
400
400
400
400
400
400
400
400
400
400
400
400
400
400
400
400
400
400
400
400
400
400
400
400
400
400
400
400
400
400
400
400
400
400
400
400
400
400
400
400
400
400
400
400
400
400
400
400
400
400
400
400
400
400
400
400
400
400
400
400
400
400
400
400
400
400
400
400
400
400
400
400
400
400
400
400
400
400
400
400
400
400
400
400
400
400
400
400
400
)
;

boundaryField
{
    sides
    {
        type            zeroGradient;
    }
    empty
    {
        type            empty;
    }
}


// ************************************************************************* //
