/*--------------------------------*- C++ -*----------------------------------*\
| =========                 |                                                 |
| \\      /  F ield         | OpenFOAM: The Open Source CFD Toolbox           |
|  \\    /   O peration     | Version:  4.1                                   |
|   \\  /    A nd           | Web:      www.OpenFOAM.org                      |
|    \\/     M anipulation  |                                                 |
\*---------------------------------------------------------------------------*/
FoamFile
{
    version     2.0;
    format      ascii;
    class       volVectorField;
    location    "0.0056";
    object      U;
}
// * * * * * * * * * * * * * * * * * * * * * * * * * * * * * * * * * * * * * //

dimensions      [0 1 -1 0 0 0 0];

internalField   nonuniform List<vector> 
1000
(
(-1.46077e-11 0 0)
(-1.6675e-11 0 0)
(-1.88652e-11 0 0)
(-1.85231e-11 0 0)
(-2.09809e-11 0 0)
(-2.05958e-11 0 0)
(-1.9166e-11 0 0)
(-1.72916e-11 0 0)
(-1.56237e-11 0 0)
(-1.44683e-11 0 0)
(-1.20611e-11 0 0)
(-1.49339e-11 0 0)
(-1.33107e-11 0 0)
(-1.34058e-11 0 0)
(-1.12223e-11 0 0)
(-1.40855e-11 0 0)
(-1.12791e-11 0 0)
(-1.4872e-11 0 0)
(-1.17115e-11 0 0)
(-1.53788e-11 0 0)
(-1.08804e-11 0 0)
(-1.62077e-11 0 0)
(-1.45959e-11 0 0)
(-1.70521e-11 0 0)
(-1.47633e-11 0 0)
(-1.63149e-11 0 0)
(-1.61764e-11 0 0)
(-1.84612e-11 0 0)
(-1.74001e-11 0 0)
(-1.6124e-11 0 0)
(-1.83925e-11 0 0)
(-1.7966e-11 0 0)
(-1.71118e-11 0 0)
(-1.64759e-11 0 0)
(-1.81754e-11 0 0)
(-1.20284e-11 0 0)
(-1.5629e-11 0 0)
(-1.20668e-11 0 0)
(-1.59647e-11 0 0)
(-1.36122e-11 0 0)
(-1.86498e-11 0 0)
(-1.70602e-11 0 0)
(-1.85301e-11 0 0)
(-1.43364e-11 0 0)
(-1.8686e-11 0 0)
(-1.48788e-11 0 0)
(-1.60217e-11 0 0)
(-1.47459e-11 0 0)
(-1.52209e-11 0 0)
(-1.09497e-11 0 0)
(-1.42812e-11 0 0)
(-1.22521e-11 0 0)
(-1.41181e-11 0 0)
(-1.39067e-11 0 0)
(-1.07566e-11 0 0)
(-1.14946e-11 0 0)
(-1.31518e-11 0 0)
(-1.44374e-11 0 0)
(-1.3295e-11 0 0)
(-1.56311e-11 0 0)
(-1.26885e-11 0 0)
(-1.44842e-11 0 0)
(-1.20585e-11 0 0)
(-1.23707e-11 0 0)
(-9.75218e-12 0 0)
(-1.21514e-11 0 0)
(-8.54717e-12 0 0)
(-1.36615e-11 0 0)
(-1.08879e-11 0 0)
(-1.39842e-11 0 0)
(-7.42939e-12 0 0)
(-9.78294e-12 0 0)
(-4.34841e-12 0 0)
(-7.8786e-12 0 0)
(-2.27151e-12 0 0)
(-4.92903e-12 0 0)
(-1.48562e-12 0 0)
(-2.07774e-12 0 0)
(4.18546e-13 0 0)
(-1.66257e-12 0 0)
(-2.90264e-12 0 0)
(-5.37692e-12 0 0)
(-3.19863e-12 0 0)
(-2.89324e-12 0 0)
(-3.99537e-12 0 0)
(-3.47942e-13 0 0)
(-2.8633e-12 0 0)
(-3.00944e-12 0 0)
(-2.90723e-12 0 0)
(1.84456e-12 0 0)
(-1.83699e-12 0 0)
(5.99122e-12 0 0)
(-1.94613e-12 0 0)
(4.46441e-12 0 0)
(4.26622e-13 0 0)
(1.11078e-12 0 0)
(1.29236e-12 0 0)
(4.56954e-12 0 0)
(3.17114e-12 0 0)
(6.80907e-12 0 0)
(5.94053e-12 0 0)
(6.1661e-12 0 0)
(8.35399e-12 0 0)
(6.20716e-12 0 0)
(9.21559e-12 0 0)
(8.11205e-12 0 0)
(8.00543e-12 0 0)
(7.97493e-12 0 0)
(6.10425e-12 0 0)
(8.7719e-12 0 0)
(9.67198e-12 0 0)
(8.25386e-12 0 0)
(8.52283e-12 0 0)
(8.81833e-12 0 0)
(9.97874e-12 0 0)
(1.26285e-11 0 0)
(1.25118e-11 0 0)
(1.10331e-11 0 0)
(1.39985e-11 0 0)
(1.17466e-11 0 0)
(1.23441e-11 0 0)
(1.40637e-11 0 0)
(1.33071e-11 0 0)
(1.34196e-11 0 0)
(1.3063e-11 0 0)
(1.16884e-11 0 0)
(1.20777e-11 0 0)
(1.45852e-11 0 0)
(1.27999e-11 0 0)
(1.5884e-11 0 0)
(1.54545e-11 0 0)
(1.55351e-11 0 0)
(1.61727e-11 0 0)
(1.55736e-11 0 0)
(1.61555e-11 0 0)
(1.70432e-11 0 0)
(1.57301e-11 0 0)
(1.51288e-11 0 0)
(1.57831e-11 0 0)
(1.60692e-11 0 0)
(1.62933e-11 0 0)
(1.84193e-11 0 0)
(1.65213e-11 0 0)
(1.70072e-11 0 0)
(1.52204e-11 0 0)
(1.38135e-11 0 0)
(1.49396e-11 0 0)
(1.39794e-11 0 0)
(1.5152e-11 0 0)
(1.26309e-11 0 0)
(1.46417e-11 0 0)
(1.35134e-11 0 0)
(1.77094e-11 0 0)
(1.47008e-11 0 0)
(1.79211e-11 0 0)
(1.8657e-11 0 0)
(1.874e-11 0 0)
(1.92045e-11 0 0)
(1.79507e-11 0 0)
(2.12336e-11 0 0)
(2.08844e-11 0 0)
(1.83964e-11 0 0)
(1.84044e-11 0 0)
(2.05789e-11 0 0)
(2.19044e-11 0 0)
(2.30727e-11 0 0)
(2.3541e-11 0 0)
(2.31646e-11 0 0)
(2.27711e-11 0 0)
(2.27329e-11 0 0)
(2.2945e-11 0 0)
(2.38327e-11 0 0)
(2.42284e-11 0 0)
(2.51616e-11 0 0)
(2.18294e-11 0 0)
(2.13247e-11 0 0)
(1.90055e-11 0 0)
(2.0574e-11 0 0)
(1.88327e-11 0 0)
(2.28655e-11 0 0)
(2.0658e-11 0 0)
(2.12812e-11 0 0)
(1.93728e-11 0 0)
(1.89542e-11 0 0)
(1.7789e-11 0 0)
(1.69852e-11 0 0)
(1.50385e-11 0 0)
(1.49613e-11 0 0)
(1.36695e-11 0 0)
(1.5254e-11 0 0)
(1.68234e-11 0 0)
(1.21889e-11 0 0)
(1.49757e-11 0 0)
(1.06551e-11 0 0)
(1.50611e-11 0 0)
(1.35145e-11 0 0)
(1.62e-11 0 0)
(1.43466e-11 0 0)
(1.61441e-11 0 0)
(1.26175e-11 0 0)
(1.56563e-11 0 0)
(1.04086e-11 0 0)
(1.17816e-11 0 0)
(8.28946e-12 0 0)
(1.03729e-11 0 0)
(9.99306e-12 0 0)
(1.02618e-11 0 0)
(9.6219e-12 0 0)
(1.19011e-11 0 0)
(1.17735e-11 0 0)
(1.18457e-11 0 0)
(1.29269e-11 0 0)
(1.21065e-11 0 0)
(1.35276e-11 0 0)
(1.20218e-11 0 0)
(1.74963e-11 0 0)
(1.40336e-11 0 0)
(1.68442e-11 0 0)
(1.1155e-11 0 0)
(1.84605e-11 0 0)
(2.33286e-11 0 0)
(4.54805e-11 0 0)
(7.7255e-11 0 0)
(1.55424e-10 0 0)
(3.0359e-10 0 0)
(6.16802e-10 0 0)
(1.23076e-09 0 0)
(2.45496e-09 0 0)
(4.85352e-09 0 0)
(9.53774e-09 0 0)
(1.86039e-08 0 0)
(3.6029e-08 0 0)
(6.92632e-08 0 0)
(1.32166e-07 0 0)
(2.50306e-07 0 0)
(4.70443e-07 0 0)
(8.77388e-07 0 0)
(1.62357e-06 0 0)
(2.98054e-06 0 0)
(5.42764e-06 0 0)
(9.80305e-06 0 0)
(1.75584e-05 0 0)
(3.11832e-05 0 0)
(5.49037e-05 0 0)
(9.58204e-05 0 0)
(0.000165736 0 0)
(0.000284052 0 0)
(0.000482305 0 0)
(0.00081115 0 0)
(0.00135096 0 0)
(0.00222766 0 0)
(0.00363592 0 0)
(0.00587254 0 0)
(0.0093835 0 0)
(0.0148287 0 0)
(0.0231685 0 0)
(0.035777 0 0)
(0.0545833 0 0)
(0.0822422 0 0)
(0.122328 0 0)
(0.179536 0 0)
(0.259879 0 0)
(0.370817 0 0)
(0.521302 0 0)
(0.721638 0 0)
(0.9831 0 0)
(1.31721 0 0)
(1.73455 0 0)
(2.24287 0 0)
(2.84427 0 0)
(3.53364 0 0)
(4.30169 0 0)
(5.13961 0 0)
(6.04032 0 0)
(6.9977 0 0)
(8.006 0 0)
(9.0597 0 0)
(10.1535 0 0)
(11.2827 0 0)
(12.4429 0 0)
(13.6301 0 0)
(14.841 0 0)
(16.0727 0 0)
(17.3226 0 0)
(18.5886 0 0)
(19.8687 0 0)
(21.1614 0 0)
(22.4654 0 0)
(23.7793 0 0)
(25.1023 0 0)
(26.4335 0 0)
(27.772 0 0)
(29.1173 0 0)
(30.4687 0 0)
(31.8257 0 0)
(33.1878 0 0)
(34.5548 0 0)
(35.9261 0 0)
(37.3015 0 0)
(38.6807 0 0)
(40.0633 0 0)
(41.4493 0 0)
(42.8383 0 0)
(44.2302 0 0)
(45.6248 0 0)
(47.0219 0 0)
(48.4213 0 0)
(49.823 0 0)
(51.2267 0 0)
(52.6324 0 0)
(54.04 0 0)
(55.4492 0 0)
(56.8602 0 0)
(58.2726 0 0)
(59.6865 0 0)
(61.1018 0 0)
(62.5183 0 0)
(63.9361 0 0)
(65.355 0 0)
(66.7749 0 0)
(68.1958 0 0)
(69.6177 0 0)
(71.0404 0 0)
(72.4639 0 0)
(73.8881 0 0)
(75.313 0 0)
(76.7385 0 0)
(78.1646 0 0)
(79.5912 0 0)
(81.0183 0 0)
(82.4457 0 0)
(83.8736 0 0)
(85.3017 0 0)
(86.73 0 0)
(88.1586 0 0)
(89.5873 0 0)
(91.0161 0 0)
(92.4449 0 0)
(93.8738 0 0)
(95.3026 0 0)
(96.7313 0 0)
(98.1598 0 0)
(99.5881 0 0)
(101.016 0 0)
(102.444 0 0)
(103.871 0 0)
(105.298 0 0)
(106.725 0 0)
(108.151 0 0)
(109.576 0 0)
(111.001 0 0)
(112.425 0 0)
(113.848 0 0)
(115.27 0 0)
(116.692 0 0)
(118.112 0 0)
(119.532 0 0)
(120.95 0 0)
(122.367 0 0)
(123.783 0 0)
(125.197 0 0)
(126.61 0 0)
(128.022 0 0)
(129.431 0 0)
(130.839 0 0)
(132.245 0 0)
(133.65 0 0)
(135.052 0 0)
(136.451 0 0)
(137.849 0 0)
(139.244 0 0)
(140.636 0 0)
(142.026 0 0)
(143.412 0 0)
(144.796 0 0)
(146.176 0 0)
(147.553 0 0)
(148.926 0 0)
(150.295 0 0)
(151.659 0 0)
(153.019 0 0)
(154.375 0 0)
(155.725 0 0)
(157.071 0 0)
(158.41 0 0)
(159.743 0 0)
(161.07 0 0)
(162.39 0 0)
(163.703 0 0)
(165.008 0 0)
(166.305 0 0)
(167.592 0 0)
(168.871 0 0)
(170.139 0 0)
(171.396 0 0)
(172.641 0 0)
(173.874 0 0)
(175.094 0 0)
(176.299 0 0)
(177.488 0 0)
(178.662 0 0)
(179.817 0 0)
(180.954 0 0)
(182.07 0 0)
(183.164 0 0)
(184.235 0 0)
(185.28 0 0)
(186.299 0 0)
(187.289 0 0)
(188.248 0 0)
(189.174 0 0)
(190.065 0 0)
(190.92 0 0)
(191.734 0 0)
(192.508 0 0)
(193.239 0 0)
(193.924 0 0)
(194.563 0 0)
(195.153 0 0)
(195.694 0 0)
(196.185 0 0)
(196.625 0 0)
(197.016 0 0)
(197.358 0 0)
(197.652 0 0)
(197.902 0 0)
(198.109 0 0)
(198.277 0 0)
(198.41 0 0)
(198.512 0 0)
(198.587 0 0)
(198.64 0 0)
(198.674 0 0)
(198.693 0 0)
(198.703 0 0)
(198.705 0 0)
(198.705 0 0)
(198.705 0 0)
(198.703 0 0)
(198.699 0 0)
(198.691 0 0)
(198.677 0 0)
(198.662 0 0)
(198.647 0 0)
(198.633 0 0)
(198.621 0 0)
(198.612 0 0)
(198.605 0 0)
(198.6 0 0)
(198.597 0 0)
(198.594 0 0)
(198.593 0 0)
(198.592 0 0)
(198.591 0 0)
(198.59 0 0)
(198.589 0 0)
(198.588 0 0)
(198.588 0 0)
(198.587 0 0)
(198.586 0 0)
(198.586 0 0)
(198.585 0 0)
(198.584 0 0)
(198.584 0 0)
(198.583 0 0)
(198.582 0 0)
(198.582 0 0)
(198.581 0 0)
(198.581 0 0)
(198.58 0 0)
(198.579 0 0)
(198.579 0 0)
(198.578 0 0)
(198.578 0 0)
(198.577 0 0)
(198.576 0 0)
(198.576 0 0)
(198.575 0 0)
(198.575 0 0)
(198.574 0 0)
(198.574 0 0)
(198.573 0 0)
(198.573 0 0)
(198.572 0 0)
(198.572 0 0)
(198.571 0 0)
(198.571 0 0)
(198.57 0 0)
(198.57 0 0)
(198.569 0 0)
(198.569 0 0)
(198.568 0 0)
(198.567 0 0)
(198.567 0 0)
(198.566 0 0)
(198.566 0 0)
(198.565 0 0)
(198.565 0 0)
(198.565 0 0)
(198.564 0 0)
(198.563 0 0)
(198.563 0 0)
(198.562 0 0)
(198.562 0 0)
(198.561 0 0)
(198.561 0 0)
(198.56 0 0)
(198.56 0 0)
(198.559 0 0)
(198.559 0 0)
(198.558 0 0)
(198.558 0 0)
(198.557 0 0)
(198.557 0 0)
(198.557 0 0)
(198.556 0 0)
(198.556 0 0)
(198.555 0 0)
(198.555 0 0)
(198.555 0 0)
(198.554 0 0)
(198.554 0 0)
(198.554 0 0)
(198.553 0 0)
(198.553 0 0)
(198.553 0 0)
(198.553 0 0)
(198.552 0 0)
(198.552 0 0)
(198.552 0 0)
(198.552 0 0)
(198.552 0 0)
(198.551 0 0)
(198.551 0 0)
(198.551 0 0)
(198.551 0 0)
(198.551 0 0)
(198.551 0 0)
(198.55 0 0)
(198.55 0 0)
(198.55 0 0)
(198.55 0 0)
(198.55 0 0)
(198.55 0 0)
(198.549 0 0)
(198.549 0 0)
(198.549 0 0)
(198.549 0 0)
(198.549 0 0)
(198.548 0 0)
(198.548 0 0)
(198.548 0 0)
(198.548 0 0)
(198.548 0 0)
(198.547 0 0)
(198.547 0 0)
(198.547 0 0)
(198.547 0 0)
(198.546 0 0)
(198.546 0 0)
(198.546 0 0)
(198.546 0 0)
(198.545 0 0)
(198.545 0 0)
(198.545 0 0)
(198.545 0 0)
(198.544 0 0)
(198.544 0 0)
(198.544 0 0)
(198.544 0 0)
(198.543 0 0)
(198.543 0 0)
(198.542 0 0)
(198.542 0 0)
(198.542 0 0)
(198.542 0 0)
(198.542 0 0)
(198.541 0 0)
(198.541 0 0)
(198.541 0 0)
(198.54 0 0)
(198.54 0 0)
(198.54 0 0)
(198.54 0 0)
(198.54 0 0)
(198.539 0 0)
(198.539 0 0)
(198.539 0 0)
(198.539 0 0)
(198.539 0 0)
(198.539 0 0)
(198.539 0 0)
(198.539 0 0)
(198.539 0 0)
(198.539 0 0)
(198.539 0 0)
(198.539 0 0)
(198.539 0 0)
(198.539 0 0)
(198.539 0 0)
(198.539 0 0)
(198.539 0 0)
(198.542 0 0)
(198.55 0 0)
(198.567 0 0)
(198.622 0 0)
(198.756 0 0)
(198.84 0 0)
(198.757 0 0)
(198.626 0 0)
(198.541 0 0)
(198.487 0 0)
(198.466 0 0)
(198.487 0 0)
(198.516 0 0)
(198.519 0 0)
(198.506 0 0)
(198.516 0 0)
(198.543 0 0)
(198.55 0 0)
(198.529 0 0)
(198.517 0 0)
(198.536 0 0)
(198.554 0 0)
(198.537 0 0)
(198.513 0 0)
(198.526 0 0)
(198.556 0 0)
(198.55 0 0)
(198.517 0 0)
(198.512 0 0)
(198.542 0 0)
(198.556 0 0)
(198.527 0 0)
(198.502 0 0)
(198.522 0 0)
(198.552 0 0)
(198.54 0 0)
(198.508 0 0)
(198.507 0 0)
(198.538 0 0)
(198.549 0 0)
(198.521 0 0)
(198.501 0 0)
(198.524 0 0)
(198.551 0 0)
(198.534 0 0)
(198.503 0 0)
(198.51 0 0)
(198.543 0 0)
(198.544 0 0)
(198.511 0 0)
(198.5 0 0)
(198.531 0 0)
(198.552 0 0)
(198.526 0 0)
(198.497 0 0)
(198.515 0 0)
(198.548 0 0)
(198.539 0 0)
(198.502 0 0)
(198.499 0 0)
(198.536 0 0)
(198.552 0 0)
(198.521 0 0)
(198.494 0 0)
(198.514 0 0)
(198.546 0 0)
(198.537 0 0)
(198.502 0 0)
(198.5 0 0)
(198.533 0 0)
(198.546 0 0)
(198.515 0 0)
(198.492 0 0)
(198.517 0 0)
(198.547 0 0)
(198.53 0 0)
(198.496 0 0)
(198.5 0 0)
(198.535 0 0)
(198.542 0 0)
(198.508 0 0)
(198.49 0 0)
(198.521 0 0)
(198.546 0 0)
(198.521 0 0)
(198.487 0 0)
(198.503 0 0)
(198.541 0 0)
(198.536 0 0)
(198.495 0 0)
(198.487 0 0)
(198.524 0 0)
(198.544 0 0)
(198.512 0 0)
(198.48 0 0)
(198.502 0 0)
(198.539 0 0)
(198.529 0 0)
(198.488 0 0)
(198.484 0 0)
(198.522 0 0)
(198.537 0 0)
(198.503 0 0)
(198.475 0 0)
(198.501 0 0)
(198.535 0 0)
(198.517 0 0)
(198.477 0 0)
(198.48 0 0)
(198.52 0 0)
(198.528 0 0)
(198.489 0 0)
(198.465 0 0)
(198.496 0 0)
(198.527 0 0)
(198.504 0 0)
(198.463 0 0)
(198.471 0 0)
(198.511 0 0)
(198.512 0 0)
(198.47 0 0)
(198.451 0 0)
(198.484 0 0)
(198.51 0 0)
(198.48 0 0)
(198.44 0 0)
(198.454 0 0)
(198.492 0 0)
(198.484 0 0)
(198.439 0 0)
(198.424 0 0)
(198.458 0 0)
(198.477 0 0)
(198.44 0 0)
(198.401 0 0)
(198.417 0 0)
(198.45 0 0)
(198.433 0 0)
(198.384 0 0)
(198.374 0 0)
(198.407 0 0)
(198.413 0 0)
(198.366 0 0)
(198.329 0 0)
(198.348 0 0)
(198.373 0 0)
(198.339 0 0)
(198.283 0 0)
(198.277 0 0)
(198.306 0 0)
(198.295 0 0)
(198.234 0 0)
(198.195 0 0)
(198.21 0 0)
(198.221 0 0)
(198.17 0 0)
(198.105 0 0)
(198.092 0 0)
(198.107 0 0)
(198.075 0 0)
(198.001 0 0)
(197.953 0 0)
(197.951 0 0)
(197.936 0 0)
(197.863 0 0)
(197.786 0 0)
(197.753 0 0)
(197.738 0 0)
(197.675 0 0)
(197.576 0 0)
(197.505 0 0)
(197.469 0 0)
(197.414 0 0)
(197.3 0 0)
(197.182 0 0)
(197.107 0 0)
(197.045 0 0)
(196.919 0 0)
(196.742 0 0)
(196.605 0 0)
(196.51 0 0)
(196.38 0 0)
(196.15 0 0)
(195.918 0 0)
(195.761 0 0)
(195.616 0 0)
(195.334 0 0)
(194.956 0 0)
(194.665 0 0)
(194.456 0 0)
(194.104 0 0)
(193.528 0 0)
(193.02 0 0)
(192.641 0 0)
(192.065 0 0)
(190.895 0 0)
(188.932 0 0)
(185.478 0 0)
(176.898 0 0)
(146.588 0 0)
(79.7026 0 0)
(23.9416 0 0)
(6.17229 0 0)
(1.49664 0 0)
(0.356459 0 0)
(0.0844424 0 0)
(0.0199749 0 0)
(0.00472355 0 0)
(0.00111696 0 0)
(0.000264128 0 0)
(6.24583e-05 0 0)
(1.47692e-05 0 0)
(3.49233e-06 0 0)
(8.25779e-07 0 0)
(1.95258e-07 0 0)
(4.61701e-08 0 0)
(1.09182e-08 0 0)
(2.58202e-09 0 0)
(6.11878e-10 0 0)
(1.46684e-10 0 0)
(3.86351e-11 0 0)
(1.04491e-11 0 0)
(4.20077e-12 0 0)
(1.25915e-12 0 0)
(2.35474e-12 0 0)
(5.84529e-12 0 0)
(3.99373e-12 0 0)
(7.14475e-12 0 0)
(7.82983e-12 0 0)
(5.77103e-12 0 0)
(5.33213e-12 0 0)
(5.11986e-12 0 0)
(6.03829e-12 0 0)
(5.63632e-12 0 0)
(7.82881e-12 0 0)
(8.50233e-12 0 0)
(8.21854e-12 0 0)
(1.02537e-11 0 0)
(7.63139e-12 0 0)
(6.54631e-12 0 0)
(2.62894e-12 0 0)
(3.35448e-12 0 0)
(4.60939e-12 0 0)
(8.07414e-12 0 0)
(5.77899e-12 0 0)
(1.16869e-11 0 0)
(8.58331e-12 0 0)
(1.02078e-11 0 0)
(6.48916e-12 0 0)
(7.79896e-12 0 0)
(7.72874e-12 0 0)
(5.06352e-12 0 0)
(6.96198e-12 0 0)
(3.86734e-12 0 0)
(2.49996e-12 0 0)
(3.39544e-12 0 0)
(2.47207e-12 0 0)
(3.75323e-12 0 0)
(4.85549e-12 0 0)
(6.4603e-12 0 0)
(5.15256e-12 0 0)
(6.8348e-12 0 0)
(6.72094e-12 0 0)
(5.37828e-12 0 0)
(7.07453e-12 0 0)
(7.15248e-12 0 0)
(7.76523e-12 0 0)
(3.73729e-12 0 0)
(4.38833e-12 0 0)
(4.06794e-12 0 0)
(6.11165e-12 0 0)
(4.59869e-12 0 0)
(5.11675e-12 0 0)
(5.03377e-12 0 0)
(6.77203e-12 0 0)
(8.6181e-12 0 0)
(6.36222e-12 0 0)
(9.32703e-12 0 0)
(8.46818e-12 0 0)
(8.00873e-12 0 0)
(8.25256e-12 0 0)
(1.02516e-11 0 0)
(1.22088e-11 0 0)
(1.28533e-11 0 0)
(1.519e-11 0 0)
(1.31055e-11 0 0)
(1.63431e-11 0 0)
(1.72631e-11 0 0)
(1.84713e-11 0 0)
(2.06705e-11 0 0)
(2.12002e-11 0 0)
(2.24098e-11 0 0)
(2.20552e-11 0 0)
(2.39327e-11 0 0)
(2.26567e-11 0 0)
(2.46055e-11 0 0)
(2.29185e-11 0 0)
(2.44215e-11 0 0)
(2.55584e-11 0 0)
(2.38947e-11 0 0)
(2.29211e-11 0 0)
(2.49551e-11 0 0)
(2.29815e-11 0 0)
(2.40155e-11 0 0)
(2.20468e-11 0 0)
(2.25112e-11 0 0)
(2.05239e-11 0 0)
(2.10603e-11 0 0)
(2.15096e-11 0 0)
(2.22338e-11 0 0)
(2.0904e-11 0 0)
(2.16384e-11 0 0)
(2.02466e-11 0 0)
(2.02708e-11 0 0)
(2.22237e-11 0 0)
(2.0016e-11 0 0)
(2.01085e-11 0 0)
(2.02709e-11 0 0)
(2.00813e-11 0 0)
(2.01526e-11 0 0)
(2.18865e-11 0 0)
(2.09892e-11 0 0)
(2.45421e-11 0 0)
(2.54667e-11 0 0)
(2.69681e-11 0 0)
(2.51477e-11 0 0)
(2.73914e-11 0 0)
(2.302e-11 0 0)
(2.36597e-11 0 0)
(2.01439e-11 0 0)
(2.08869e-11 0 0)
(2.1869e-11 0 0)
(2.35464e-11 0 0)
(2.19739e-11 0 0)
(2.0247e-11 0 0)
(2.05126e-11 0 0)
(2.37566e-11 0 0)
(2.32044e-11 0 0)
(2.26711e-11 0 0)
(2.60322e-11 0 0)
(2.57213e-11 0 0)
(2.58923e-11 0 0)
(2.70282e-11 0 0)
(2.51763e-11 0 0)
(2.8718e-11 0 0)
(2.77152e-11 0 0)
(2.999e-11 0 0)
(2.93345e-11 0 0)
(3.17297e-11 0 0)
(3.11804e-11 0 0)
(3.17195e-11 0 0)
(3.21252e-11 0 0)
(3.31378e-11 0 0)
(3.27049e-11 0 0)
(3.00758e-11 0 0)
(2.76328e-11 0 0)
(2.87235e-11 0 0)
(3.06407e-11 0 0)
(3.08217e-11 0 0)
(3.0908e-11 0 0)
(2.93762e-11 0 0)
(3.20807e-11 0 0)
(3.22187e-11 0 0)
(3.03685e-11 0 0)
(2.8157e-11 0 0)
(2.62973e-11 0 0)
(2.37434e-11 0 0)
(2.50032e-11 0 0)
(2.59368e-11 0 0)
(2.96024e-11 0 0)
(2.91814e-11 0 0)
(3.20227e-11 0 0)
(3.10897e-11 0 0)
(3.39638e-11 0 0)
(3.29763e-11 0 0)
(3.34449e-11 0 0)
(3.26166e-11 0 0)
(3.16014e-11 0 0)
(3.20507e-11 0 0)
(3.05761e-11 0 0)
(2.88012e-11 0 0)
(2.91696e-11 0 0)
(3.05566e-11 0 0)
(2.74105e-11 0 0)
(2.46438e-11 0 0)
(2.20866e-11 0 0)
(2.37575e-11 0 0)
(2.17521e-11 0 0)
(2.20061e-11 0 0)
(2.085e-11 0 0)
(2.09353e-11 0 0)
(1.82262e-11 0 0)
(2.18206e-11 0 0)
(2.05981e-11 0 0)
(2.51755e-11 0 0)
(2.08653e-11 0 0)
(2.40018e-11 0 0)
(2.40314e-11 0 0)
)
;

boundaryField
{
    sides
    {
        type            zeroGradient;
    }
    empty
    {
        type            empty;
    }
}


// ************************************************************************* //
