-4.995 	400 	1.39147e-11 	100000
-4.985 	400 	1.36542e-11 	100000
-4.975 	400 	1.38502e-11 	100000
-4.965 	400 	1.44529e-11 	100000
-4.955 	400 	1.47626e-11 	100000
-4.945 	400 	1.45051e-11 	100000
-4.935 	400 	1.41241e-11 	100000
-4.925 	400 	1.60821e-11 	100000
-4.915 	400 	1.53153e-11 	100000
-4.905 	400 	1.5586e-11 	100000
-4.895 	400 	1.29311e-11 	100000
-4.885 	400 	1.47177e-11 	100000
-4.875 	400 	1.33041e-11 	100000
-4.865 	400 	1.65603e-11 	100000
-4.855 	400 	1.51582e-11 	100000
-4.845 	400 	1.65478e-11 	100000
-4.835 	400 	1.48215e-11 	100000
-4.825 	400 	1.70977e-11 	100000
-4.815 	400 	1.4352e-11 	100000
-4.805 	400 	1.56738e-11 	100000
-4.795 	400 	1.22321e-11 	100000
-4.785 	400 	1.41055e-11 	100000
-4.775 	400 	1.24918e-11 	100000
-4.765 	400 	1.30957e-11 	100000
-4.755 	400 	9.26668e-12 	100000
-4.745 	400 	1.26959e-11 	100000
-4.735 	400 	1.19021e-11 	100000
-4.725 	400 	1.61972e-11 	100000
-4.715 	400 	1.47406e-11 	100000
-4.705 	400 	1.45182e-11 	100000
-4.695 	400 	1.57916e-11 	100000
-4.685 	400 	1.54916e-11 	100000
-4.675 	400 	1.56752e-11 	100000
-4.665 	400 	1.37689e-11 	100000
-4.655 	400 	1.78523e-11 	100000
-4.645 	400 	1.43273e-11 	100000
-4.635 	400 	1.73657e-11 	100000
-4.625 	400 	1.26822e-11 	100000
-4.615 	400 	1.4131e-11 	100000
-4.605 	400 	8.17726e-12 	100000
-4.595 	400 	1.03033e-11 	100000
-4.585 	400 	7.54858e-12 	100000
-4.575 	400 	1.00087e-11 	100000
-4.565 	400 	5.39635e-12 	100000
-4.555 	400 	8.16822e-12 	100000
-4.545 	400 	5.17639e-12 	100000
-4.535 	400 	7.95434e-12 	100000
-4.525 	400 	6.85657e-12 	100000
-4.515 	400 	6.9733e-12 	100000
-4.505 	400 	6.84407e-12 	100000
-4.495 	400 	1.08076e-11 	100000
-4.485 	400 	9.53856e-12 	100000
-4.475 	400 	7.28524e-12 	100000
-4.465 	400 	6.11797e-12 	100000
-4.455 	400 	2.55753e-12 	100000
-4.445 	400 	4.6771e-12 	100000
-4.435 	400 	9.52742e-13 	100000
-4.425 	400 	3.07628e-13 	100000
-4.415 	400 	4.01152e-13 	100000
-4.405 	400 	1.33619e-14 	100000
-4.395 	400 	4.94497e-12 	100000
-4.385 	400 	5.51701e-12 	100000
-4.375 	400 	6.52836e-12 	100000
-4.365 	400 	2.57601e-12 	100000
-4.355 	400 	2.47686e-12 	100000
-4.345 	400 	5.6203e-13 	100000
-4.335 	400 	1.83973e-12 	100000
-4.325 	400 	8.47529e-13 	100000
-4.315 	400 	2.4541e-12 	100000
-4.305 	400 	1.41789e-13 	100000
-4.295 	400 	4.08326e-12 	100000
-4.285 	400 	4.25549e-12 	100000
-4.275 	400 	6.73399e-12 	100000
-4.265 	400 	4.30714e-12 	100000
-4.255 	400 	7.55794e-12 	100000
-4.245 	400 	3.2067e-12 	100000
-4.235 	400 	8.94736e-12 	100000
-4.225 	400 	7.29706e-12 	100000
-4.215 	400 	7.22619e-12 	100000
-4.205 	400 	8.60623e-12 	100000
-4.195 	400 	9.71326e-12 	100000
-4.185 	400 	6.665e-12 	100000
-4.175 	400 	5.99955e-12 	100000
-4.165 	400 	5.76641e-12 	100000
-4.155 	400 	3.7878e-12 	100000
-4.145 	400 	3.21344e-12 	100000
-4.135 	400 	6.44114e-13 	100000
-4.125 	400 	3.54599e-12 	100000
-4.115 	400 	2.63946e-12 	100000
-4.105 	400 	6.67096e-12 	100000
-4.095 	400 	5.25271e-12 	100000
-4.085 	400 	8.10557e-12 	100000
-4.075 	400 	6.62503e-12 	100000
-4.065 	400 	7.29391e-12 	100000
-4.055 	400 	3.69663e-12 	100000
-4.045 	400 	7.03724e-12 	100000
-4.035 	400 	3.87206e-12 	100000
-4.025 	400 	8.5336e-12 	100000
-4.015 	400 	6.59375e-12 	100000
-4.005 	400 	8.59419e-12 	100000
-3.995 	400 	9.52759e-12 	100000
-3.985 	400 	7.77622e-12 	100000
-3.975 	400 	8.2745e-12 	100000
-3.965 	400 	5.27138e-12 	100000
-3.955 	400 	8.42384e-12 	100000
-3.945 	400 	7.18868e-12 	100000
-3.935 	400 	8.47717e-12 	100000
-3.925 	400 	1.06804e-11 	100000
-3.915 	400 	9.28466e-12 	100000
-3.905 	400 	9.13946e-12 	100000
-3.895 	400 	6.43193e-12 	100000
-3.885 	400 	4.68673e-12 	100000
-3.875 	400 	1.35577e-12 	100000
-3.865 	400 	6.57065e-13 	100000
-3.855 	400 	5.55637e-13 	100000
-3.845 	400 	7.45803e-13 	100000
-3.835 	400 	1.4261e-12 	100000
-3.825 	400 	2.92352e-12 	100000
-3.815 	400 	4.88208e-12 	100000
-3.805 	400 	2.76741e-12 	100000
-3.795 	400 	5.16137e-12 	100000
-3.785 	400 	9.17357e-12 	100000
-3.775 	400 	6.96203e-12 	100000
-3.765 	400 	8.64991e-12 	100000
-3.755 	400 	6.30695e-12 	100000
-3.745 	400 	4.34086e-12 	100000
-3.735 	400 	3.02468e-12 	100000
-3.725 	400 	6.00878e-12 	100000
-3.715 	400 	4.47941e-12 	100000
-3.705 	400 	5.61228e-12 	100000
-3.695 	400 	4.00712e-12 	100000
-3.685 	400 	4.91456e-12 	100000
-3.675 	400 	3.7563e-12 	100000
-3.665 	400 	3.05123e-12 	100000
-3.655 	400 	1.10838e-12 	100000
-3.645 	400 	2.92279e-13 	100000
-3.635 	400 	3.76721e-13 	100000
-3.625 	400 	7.95789e-13 	100000
-3.615 	400 	1.23122e-12 	100000
-3.605 	400 	2.37362e-12 	100000
-3.595 	400 	2.06759e-12 	100000
-3.585 	400 	1.14436e-12 	100000
-3.575 	400 	1.14038e-12 	100000
-3.565 	400 	2.57081e-12 	100000
-3.555 	400 	3.94974e-12 	100000
-3.545 	400 	6.04535e-12 	100000
-3.535 	400 	5.93464e-12 	100000
-3.525 	400 	3.2012e-12 	100000
-3.515 	400 	5.39924e-12 	100000
-3.505 	400 	6.95581e-12 	100000
-3.495 	400 	7.09272e-12 	100000
-3.485 	400 	4.36729e-12 	100000
-3.475 	400 	5.89857e-12 	100000
-3.465 	400 	3.8725e-12 	100000
-3.455 	400 	6.89775e-12 	100000
-3.445 	400 	1.01332e-12 	100000
-3.435 	400 	2.45952e-12 	100000
-3.425 	400 	3.68934e-12 	100000
-3.415 	400 	3.33581e-12 	100000
-3.405 	400 	2.34778e-12 	100000
-3.395 	400 	3.27218e-13 	100000
-3.385 	400 	6.5854e-13 	100000
-3.375 	400 	3.28894e-12 	100000
-3.365 	400 	2.22396e-12 	100000
-3.355 	400 	3.72836e-12 	100000
-3.345 	400 	4.00982e-12 	100000
-3.335 	400 	3.4321e-12 	100000
-3.325 	400 	1.72827e-12 	100000
-3.315 	400 	2.52535e-12 	100000
-3.305 	400 	4.15111e-12 	100000
-3.295 	400 	1.25582e-12 	100000
-3.285 	400 	1.14026e-12 	100000
-3.275 	400 	3.94618e-12 	100000
-3.265 	400 	5.04038e-12 	100000
-3.255 	400 	3.82759e-12 	100000
-3.245 	400 	2.99954e-12 	100000
-3.235 	400 	3.51442e-12 	100000
-3.225 	400 	5.64297e-12 	100000
-3.215 	400 	4.41609e-12 	100000
-3.205 	400 	6.74695e-12 	100000
-3.195 	400 	7.77309e-13 	100000
-3.185 	400 	5.19401e-12 	100000
-3.175 	400 	6.6254e-12 	100000
-3.165 	400 	4.20132e-12 	100000
-3.155 	400 	2.71158e-12 	100000
-3.145 	400 	4.43249e-12 	100000
-3.135 	400 	2.22922e-12 	100000
-3.125 	400 	4.9383e-12 	100000
-3.115 	400 	3.64397e-12 	100000
-3.105 	400 	4.10415e-12 	100000
-3.095 	400 	5.97584e-12 	100000
-3.085 	400 	4.83915e-12 	100000
-3.075 	400 	7.35816e-12 	100000
-3.065 	400 	6.52463e-12 	100000
-3.055 	400 	8.57151e-12 	100000
-3.045 	400 	6.8119e-12 	100000
-3.035 	400 	9.93173e-12 	100000
-3.025 	400 	7.09374e-12 	100000
-3.015 	400 	8.4096e-12 	100000
-3.005 	400 	3.10595e-12 	100000
-2.995 	400 	8.3044e-12 	100000
-2.985 	400 	3.25046e-12 	100000
-2.975 	400 	4.91133e-12 	100000
-2.965 	400 	6.21318e-12 	100000
-2.955 	400 	8.41681e-12 	100000
-2.945 	400 	6.28096e-12 	100000
-2.935 	400 	6.07624e-12 	100000
-2.925 	400 	5.84099e-12 	100000
-2.915 	400 	4.41182e-12 	100000
-2.905 	400 	6.02753e-12 	100000
-2.895 	400 	3.89625e-12 	100000
-2.885 	400 	4.31622e-12 	100000
-2.875 	400 	4.68565e-12 	100000
-2.865 	400 	5.1824e-12 	100000
-2.855 	400 	4.79605e-12 	100000
-2.845 	400 	7.279e-12 	100000
-2.835 	400 	4.59391e-12 	100000
-2.825 	400 	6.39142e-12 	100000
-2.815 	400 	7.93983e-13 	100000
-2.805 	400 	6.39502e-12 	100000
-2.795 	400 	3.97149e-12 	100000
-2.785 	400 	6.76613e-12 	100000
-2.775 	400 	1.66916e-12 	100000
-2.765 	400 	6.72229e-12 	100000
-2.755 	400 	8.18805e-13 	100000
-2.745 	400 	6.99991e-12 	100000
-2.735 	400 	3.83217e-13 	100000
-2.725 	400 	5.61517e-12 	100000
-2.715 	400 	1.87558e-12 	100000
-2.705 	400 	2.67257e-12 	100000
-2.695 	400 	1.94497e-12 	100000
-2.685 	400 	2.06671e-12 	100000
-2.675 	400 	2.57578e-12 	100000
-2.665 	400 	2.47854e-12 	100000
-2.655 	400 	7.68795e-12 	100000
-2.645 	400 	3.42138e-12 	100000
-2.635 	400 	7.32404e-12 	100000
-2.625 	400 	1.91471e-12 	100000
-2.615 	400 	6.20595e-12 	100000
-2.605 	400 	1.39657e-12 	100000
-2.595 	400 	4.06974e-12 	100000
-2.585 	400 	3.08755e-13 	100000
-2.575 	400 	1.93994e-12 	100000
-2.565 	400 	2.0134e-12 	100000
-2.555 	400 	1.76624e-12 	100000
-2.545 	400 	1.3738e-12 	100000
-2.535 	400 	1.3581e-12 	100000
-2.525 	400 	4.48064e-13 	100000
-2.515 	400 	8.13531e-13 	100000
-2.505 	400 	2.1891e-12 	100000
-2.495 	400 	5.41976e-12 	100000
-2.485 	400 	7.33775e-12 	100000
-2.475 	400 	6.12672e-12 	100000
-2.465 	400 	5.90688e-12 	100000
-2.455 	400 	4.21341e-12 	100000
-2.445 	400 	2.46995e-12 	100000
-2.435 	400 	3.89658e-12 	100000
-2.425 	400 	1.99878e-12 	100000
-2.415 	400 	6.22491e-15 	100000
-2.405 	400 	6.73415e-14 	100000
-2.395 	400 	4.36686e-12 	100000
-2.385 	400 	2.51587e-12 	100000
-2.375 	400 	2.65897e-12 	100000
-2.365 	400 	5.99941e-13 	100000
-2.355 	400 	2.10302e-12 	100000
-2.345 	400 	1.70274e-12 	100000
-2.335 	400 	1.22281e-12 	100000
-2.325 	400 	1.32514e-12 	100000
-2.315 	400 	8.456e-13 	100000
-2.305 	400 	1.99708e-12 	100000
-2.295 	400 	3.29456e-12 	100000
-2.285 	400 	5.00801e-13 	100000
-2.275 	400 	6.66087e-13 	100000
-2.265 	400 	1.00082e-12 	100000
-2.255 	400 	1.92301e-12 	100000
-2.245 	400 	2.38057e-12 	100000
-2.235 	400 	9.33796e-13 	100000
-2.225 	400 	5.78095e-12 	100000
-2.215 	400 	1.58406e-12 	100000
-2.205 	400 	3.21105e-12 	100000
-2.195 	400 	2.16661e-12 	100000
-2.185 	400 	1.62626e-12 	100000
-2.175 	400 	1.51705e-12 	100000
-2.165 	400 	2.64398e-12 	100000
-2.155 	400 	1.09649e-12 	100000
-2.145 	400 	4.93996e-12 	100000
-2.135 	400 	4.97763e-12 	100000
-2.125 	400 	6.96449e-12 	100000
-2.115 	400 	4.48643e-12 	100000
-2.105 	400 	4.57e-12 	100000
-2.095 	400 	2.76983e-12 	100000
-2.085 	400 	2.42843e-12 	100000
-2.075 	400 	3.95699e-12 	100000
-2.065 	400 	4.1582e-12 	100000
-2.055 	400 	4.83004e-12 	100000
-2.045 	400 	4.43124e-12 	100000
-2.035 	400 	2.52251e-12 	100000
-2.025 	400 	5.3809e-12 	100000
-2.015 	400 	7.27612e-12 	100000
-2.005 	400 	6.6438e-12 	100000
-1.995 	400 	8.40852e-12 	100000
-1.985 	400 	5.92498e-12 	100000
-1.975 	400 	6.94657e-12 	100000
-1.965 	400 	5.41339e-12 	100000
-1.955 	400 	9.23794e-12 	100000
-1.945 	400 	8.19142e-12 	100000
-1.935 	400 	7.92704e-12 	100000
-1.925 	400 	8.23602e-12 	100000
-1.915 	400 	6.30114e-12 	100000
-1.905 	400 	6.22729e-12 	100000
-1.895 	400 	8.7861e-12 	100000
-1.885 	400 	6.9637e-12 	100000
-1.875 	400 	6.8587e-12 	100000
-1.865 	400 	8.46598e-12 	100000
-1.855 	400 	4.53527e-12 	100000
-1.845 	400 	8.15556e-12 	100000
-1.835 	400 	5.28761e-12 	100000
-1.825 	400 	5.82052e-12 	100000
-1.815 	400 	6.77555e-12 	100000
-1.805 	400 	6.03253e-12 	100000
-1.795 	400 	5.21208e-12 	100000
-1.785 	400 	1.42867e-12 	100000
-1.775 	400 	3.30455e-12 	100000
-1.765 	400 	1.34283e-12 	100000
-1.755 	400 	1.54048e-12 	100000
-1.745 	400 	2.11697e-12 	100000
-1.735 	400 	2.26062e-12 	100000
-1.725 	400 	2.39802e-12 	100000
-1.715 	400 	2.75651e-12 	100000
-1.705 	400 	1.71772e-12 	100000
-1.695 	400 	1.33748e-12 	100000
-1.685 	400 	1.15709e-12 	100000
-1.675 	400 	2.13336e-14 	100000
-1.665 	400 	1.24892e-12 	100000
-1.655 	400 	2.00771e-12 	100000
-1.645 	400 	2.19067e-14 	100000
-1.635 	400 	1.99892e-12 	100000
-1.625 	400 	3.29509e-12 	100000
-1.615 	400 	3.33571e-12 	100000
-1.605 	400 	2.81396e-12 	100000
-1.595 	400 	2.01718e-12 	100000
-1.585 	400 	1.74794e-12 	100000
-1.575 	400 	2.2041e-12 	100000
-1.565 	400 	1.04054e-11 	100000
-1.555 	400 	2.69525e-11 	100000
-1.545 	400 	6.83878e-11 	100000
-1.535 	400 	1.66368e-10 	100000
-1.525 	400 	4.10362e-10 	100000
-1.515 	400 	9.92158e-10 	100000
-1.505 	400 	2.37178e-09 	100000
-1.495 	400 	5.59088e-09 	100000
-1.485 	400 	1.30252e-08 	100000
-1.475 	400 	2.99992e-08 	100000
-1.465 	400 	6.83252e-08 	100000
-1.455 	400 	1.53865e-07 	100000
-1.445 	400 	3.42556e-07 	100000
-1.435 	400 	7.53838e-07 	100000
-1.425 	400 	1.63942e-06 	100000
-1.415 	400 	3.52264e-06 	100000
-1.405 	400 	7.47671e-06 	100000
-1.395 	400 	1.56713e-05 	100000
-1.385 	400 	3.24291e-05 	100000
-1.375 	400 	6.62329e-05 	100000
-1.365 	400 	0.000133472 	100000
-1.355 	400 	0.000265303 	99999.9
-1.345 	400 	0.000519968 	99999.8
-1.335 	400 	0.00100446 	99999.7
-1.325 	399.999 	0.00191177 	99999.3
-1.315 	399.999 	0.00358339 	99998.8
-1.305 	399.997 	0.0066116 	99997.7
-1.295 	399.995 	0.0120019 	99995.9
-1.285 	399.992 	0.0214228 	99992.6
-1.275 	399.985 	0.0375774 	99987.1
-1.265 	399.974 	0.0647298 	99977.7
-1.255 	399.957 	0.109418 	99962.3
-1.245 	399.928 	0.181356 	99937.5
-1.235 	399.884 	0.29447 	99898.3
-1.225 	399.815 	0.467946 	99838.3
-1.215 	399.712 	0.726993 	99748.6
-1.205 	399.562 	1.10289 	99618.3
-1.195 	399.352 	1.63162 	99434.9
-1.185 	399.065 	2.35004 	99185.4
-1.175 	398.689 	3.28731 	98859.3
-1.165 	398.22 	4.45073 	98454
-1.155 	397.669 	5.82322 	97978.2
-1.145 	397.044 	7.38128 	97441.6
-1.135 	396.354 	9.1064 	96851.1
-1.125 	395.606 	10.9816 	96213
-1.115 	394.805 	12.9889 	95534.5
-1.105 	393.961 	15.1102 	94822.2
-1.095 	393.079 	17.3284 	94082.6
-1.085 	392.167 	19.6281 	93321.4
-1.075 	391.229 	21.9961 	92543.5
-1.065 	390.27 	24.4213 	91752.8
-1.055 	389.293 	26.8945 	90952.7
-1.045 	388.302 	29.4081 	90145.9
-1.035 	387.299 	31.956 	89334.5
-1.025 	386.287 	34.5331 	88520.5
-1.015 	385.265 	37.1355 	87705.1
-1.005 	384.237 	39.7595 	86889.5
-0.995 	383.203 	42.4026 	86074.8
-0.985 	382.165 	45.0621 	85261.8
-0.975 	381.122 	47.7361 	84451.1
-0.965 	380.076 	50.4229 	83643.4
-0.955 	379.027 	53.1209 	82839
-0.945 	377.975 	55.8289 	82038.5
-0.935 	376.922 	58.5456 	81242.1
-0.925 	375.868 	61.2699 	80450.3
-0.915 	374.812 	64.0011 	79663.2
-0.905 	373.756 	66.7381 	78881.1
-0.895 	372.7 	69.4803 	78104.2
-0.885 	371.643 	72.2268 	77332.8
-0.875 	370.587 	74.977 	76566.9
-0.865 	369.53 	77.7302 	75806.7
-0.855 	368.475 	80.4859 	75052.4
-0.845 	367.421 	83.2434 	74304.1
-0.835 	366.367 	86.0021 	73562
-0.825 	365.315 	88.7615 	72826
-0.815 	364.264 	91.5209 	72096.4
-0.805 	363.215 	94.2799 	71373.1
-0.795 	362.169 	97.0379 	70656.5
-0.785 	361.124 	99.7942 	69946.4
-0.775 	360.081 	102.548 	69243
-0.765 	359.042 	105.3 	68546.5
-0.755 	358.005 	108.048 	67856.8
-0.745 	356.971 	110.791 	67174.1
-0.735 	355.94 	113.53 	66498.5
-0.725 	354.913 	116.264 	65830.1
-0.715 	353.89 	118.991 	65169
-0.705 	352.871 	121.711 	64515.2
-0.695 	351.857 	124.423 	63869.1
-0.685 	350.847 	127.126 	63230.5
-0.675 	349.843 	129.819 	62599.8
-0.665 	348.844 	132.501 	61977
-0.655 	347.851 	135.171 	61362.2
-0.645 	346.864 	137.828 	60755.8
-0.635 	345.885 	140.47 	60157.9
-0.625 	344.913 	143.095 	59568.6
-0.615 	343.949 	145.703 	58988.2
-0.605 	342.993 	148.291 	58417
-0.595 	342.047 	150.858 	57855.2
-0.585 	341.111 	153.4 	57303.2
-0.575 	340.186 	155.917 	56761.3
-0.565 	339.273 	158.405 	56229.8
-0.555 	338.374 	160.862 	55709.2
-0.545 	337.483 	163.284 	55199.9
-0.535 	336.623 	165.669 	54702.5
-0.525 	335.744 	168.012 	54217.3
-0.515 	334.954 	170.31 	53745.3
-0.505 	334.053 	172.557 	53286.5
-0.495 	333.392 	174.752 	52842.6
-0.485 	332.422 	176.884 	52413
-0.475 	331.923 	178.954 	52000.4
-0.465 	330.936 	180.95 	51603.5
-0.455 	330.462 	182.869 	51225.2
-0.445 	329.696 	184.706 	50865.2
-0.435 	329.021 	186.447 	50524.9
-0.425 	328.61 	188.094 	50205.8
-0.415 	327.839 	189.635 	49908.2
-0.405 	327.462 	191.062 	49633.6
-0.395 	327.026 	192.373 	49382.8
-0.385 	326.444 	193.557 	49156
-0.375 	326.224 	194.613 	48955.1
-0.365 	325.871 	195.54 	48778.3
-0.355 	325.484 	196.335 	48627
-0.345 	325.366 	197.002 	48501.1
-0.335 	325.164 	197.544 	48396.8
-0.325 	324.937 	197.971 	48315.7
-0.315 	324.885 	198.295 	48254.6
-0.305 	324.83 	198.524 	48209.3
-0.295 	324.728 	198.675 	48179.8
-0.285 	324.703 	198.769 	48161.7
-0.275 	324.713 	198.814 	48152.4
-0.265 	324.712 	198.826 	48149.2
-0.255 	324.703 	198.828 	48149.3
-0.245 	324.704 	198.83 	48149.7
-0.235 	324.715 	198.827 	48150.7
-0.225 	324.725 	198.817 	48152.3
-0.215 	324.732 	198.795 	48155.2
-0.205 	324.743 	198.76 	48161.3
-0.195 	324.762 	198.718 	48168.3
-0.185 	324.784 	198.679 	48175.4
-0.175 	324.791 	198.648 	48181
-0.165 	324.801 	198.624 	48185.1
-0.155 	324.816 	198.608 	48188.2
-0.145 	324.822 	198.599 	48190.4
-0.135 	324.824 	198.594 	48191.7
-0.125 	324.831 	198.59 	48192.4
-0.115 	324.838 	198.588 	48192.8
-0.105 	324.841 	198.586 	48192.9
-0.095 	324.843 	198.584 	48193
-0.085 	324.848 	198.582 	48193.1
-0.075 	324.855 	198.581 	48193.1
-0.065 	324.858 	198.58 	48193.2
-0.055 	324.861 	198.579 	48193.6
-0.045 	324.869 	198.579 	48193.9
-0.035 	324.875 	198.578 	48194.1
-0.025 	324.878 	198.577 	48194.2
-0.015 	324.882 	198.576 	48194.3
-0.005 	324.89 	198.575 	48194.4
0.005 	324.897 	198.574 	48194.5
0.015 	324.9 	198.573 	48194.6
0.025 	324.906 	198.572 	48194.7
0.035 	324.914 	198.57 	48194.7
0.045 	324.919 	198.569 	48194.7
0.055 	324.926 	198.568 	48194.8
0.065 	324.935 	198.567 	48195.1
0.075 	324.941 	198.566 	48195.2
0.085 	324.947 	198.565 	48195.3
0.095 	324.958 	198.564 	48195.4
0.105 	324.966 	198.563 	48195.5
0.115 	324.972 	198.562 	48195.6
0.125 	324.98 	198.561 	48195.8
0.135 	324.992 	198.561 	48195.9
0.145 	325.003 	198.56 	48196
0.155 	325.009 	198.56 	48196.2
0.165 	325.018 	198.559 	48196.4
0.175 	325.033 	198.559 	48196.5
0.185 	325.048 	198.559 	48196.7
0.195 	325.057 	198.558 	48196.8
0.205 	325.063 	198.558 	48196.9
0.215 	325.074 	198.557 	48197
0.225 	325.094 	198.557 	48197
0.235 	325.115 	198.556 	48197.1
0.245 	325.13 	198.555 	48197.1
0.255 	325.138 	198.554 	48197.1
0.265 	325.146 	198.553 	48197.1
0.275 	325.164 	198.552 	48197.1
0.285 	325.196 	198.551 	48197.1
0.295 	325.227 	198.55 	48197.1
0.305 	325.25 	198.549 	48197.1
0.315 	325.261 	198.548 	48197.1
0.325 	325.269 	198.548 	48197.1
0.335 	325.287 	198.547 	48197.1
0.345 	325.332 	198.546 	48197.1
0.355 	325.388 	198.545 	48197.1
0.365 	325.432 	198.544 	48197.1
0.375 	325.457 	198.543 	48197.2
0.385 	325.469 	198.543 	48197.1
0.395 	325.485 	198.542 	48197.1
0.405 	325.529 	198.542 	48197.2
0.415 	325.651 	198.542 	48197.2
0.425 	325.787 	198.541 	48197.1
0.435 	325.884 	198.54 	48197
0.445 	325.931 	198.54 	48196.9
0.455 	325.94 	198.54 	48197.2
0.465 	325.902 	198.539 	48197.2
0.475 	325.724 	198.543 	48197.5
0.485 	325.527 	198.555 	48197.2
0.495 	325.434 	198.577 	48196.8
0.505 	325.492 	198.627 	48199
0.515 	326.659 	198.75 	48206.8
0.525 	333.754 	198.932 	48219.5
0.535 	355.479 	198.904 	48185.3
0.545 	382.897 	198.668 	48180.3
0.555 	408.63 	198.531 	48191.2
0.565 	430.981 	198.492 	48204.7
0.575 	448.94 	198.478 	48204.4
0.585 	462.375 	198.463 	48191
0.595 	471.843 	198.47 	48190.2
0.605 	478.152 	198.508 	48203.3
0.615 	482.085 	198.535 	48207.8
0.625 	484.367 	198.522 	48197.1
0.635 	485.626 	198.5 	48188.2
0.645 	486.32 	198.514 	48196
0.655 	486.688 	198.544 	48208.8
0.665 	486.823 	198.54 	48204.9
0.675 	486.83 	198.506 	48188.5
0.685 	486.841 	198.497 	48187.9
0.695 	486.886 	198.525 	48205
0.705 	486.89 	198.54 	48209.5
0.715 	486.834 	198.51 	48194.5
0.725 	486.79 	198.48 	48185.3
0.735 	486.809 	198.499 	48196.6
0.745 	486.844 	198.532 	48209.3
0.755 	486.827 	198.522 	48203.5
0.765 	486.766 	198.485 	48186.2
0.775 	486.76 	198.481 	48187.6
0.785 	486.813 	198.517 	48206.1
0.795 	486.825 	198.531 	48209.3
0.805 	486.77 	198.498 	48191.4
0.815 	486.739 	198.47 	48183.6
0.825 	486.772 	198.493 	48197.2
0.835 	486.811 	198.525 	48209.4
0.845 	486.79 	198.509 	48200.9
0.855 	486.731 	198.468 	48183.9
0.865 	486.73 	198.467 	48186.6
0.875 	486.787 	198.503 	48205.6
0.885 	486.797 	198.513 	48208
0.895 	486.739 	198.475 	48188.9
0.905 	486.709 	198.445 	48181.2
0.915 	486.745 	198.468 	48195.7
0.925 	486.784 	198.499 	48207.6
0.935 	486.758 	198.478 	48197.4
0.945 	486.7 	198.433 	48180.6
0.955 	486.701 	198.431 	48184
0.965 	486.758 	198.465 	48203
0.975 	486.764 	198.468 	48203.6
0.985 	486.697 	198.422 	48182.1
0.995 	486.671 	198.393 	48176
1.005 	486.716 	198.417 	48192.9
1.015 	486.753 	198.441 	48203.9
1.025 	486.714 	198.407 	48188.8
1.035 	486.656 	198.353 	48171.9
1.045 	486.663 	198.351 	48177
1.055 	486.725 	198.383 	48196.6
1.065 	486.727 	198.375 	48195.7
1.075 	486.648 	198.316 	48170.9
1.085 	486.622 	198.274 	48164.4
1.095 	486.659 	198.288 	48179
1.105 	486.697 	198.304 	48190.4
1.115 	486.656 	198.261 	48174.8
1.125 	486.595 	198.196 	48157
1.135 	486.594 	198.174 	48158.3
1.145 	486.645 	198.187 	48175.1
1.155 	486.65 	198.164 	48173.6
1.165 	486.57 	198.091 	48148.1
1.175 	486.545 	198.034 	48141.2
1.185 	486.568 	198.024 	48150.5
1.195 	486.599 	198.013 	48160
1.205 	486.537 	197.943 	48138.5
1.215 	486.479 	197.855 	48121.6
1.225 	486.475 	197.808 	48120.5
1.235 	486.508 	197.787 	48131.8
1.245 	486.5 	197.725 	48125.5
1.255 	486.403 	197.612 	48094.4
1.265 	486.379 	197.518 	48087.2
1.275 	486.378 	197.46 	48089.2
1.285 	486.404 	197.397 	48096.2
1.295 	486.318 	197.265 	48063.8
1.305 	486.223 	197.108 	48037.7
1.315 	486.2 	196.994 	48030.8
1.325 	486.221 	196.91 	48034.9
1.335 	486.219 	196.772 	48025.2
1.345 	486.014 	196.544 	47965.2
1.355 	485.951 	196.331 	47945.9
1.365 	485.955 	196.184 	47942.5
1.375 	485.983 	196.019 	47951.8
1.385 	485.767 	195.704 	47881.6
1.395 	485.595 	195.333 	47824.8
1.405 	485.57 	195.044 	47808.2
1.415 	485.545 	194.796 	47811.1
1.425 	485.486 	194.412 	47779
1.435 	485.047 	193.848 	47624.7
1.445 	484.864 	193.27 	47567.2
1.455 	484.701 	192.672 	47539.5
1.465 	484.675 	192.007 	47518.9
1.475 	484.259 	190.657 	47331.3
1.485 	482.249 	187.426 	46745.3
1.495 	479.827 	179.935 	45934.1
1.505 	474.982 	157.696 	43855.1
1.515 	443.412 	98.5445 	34547
1.525 	412.447 	33.2099 	27725.2
1.535 	403.24 	8.62784 	25707
1.545 	400.784 	2.10114 	25171.2
1.555 	400.186 	0.500079 	25040.7
1.565 	400.044 	0.118246 	25009.6
1.575 	400.01 	0.0279047 	25002.3
1.585 	400.002 	0.00658108 	25000.5
1.595 	400.001 	0.00155164 	25000.1
1.605 	400 	0.000365798 	25000
1.615 	400 	8.62302e-05 	25000
1.625 	400 	2.03258e-05 	25000
1.635 	400 	4.79073e-06 	25000
1.645 	400 	1.12907e-06 	25000
1.655 	400 	2.66077e-07 	25000
1.665 	400 	6.2698e-08 	25000
1.675 	400 	1.47728e-08 	25000
1.685 	400 	3.47925e-09 	25000
1.695 	400 	8.20232e-10 	25000
1.705 	400 	1.92545e-10 	25000
1.715 	400 	4.5342e-11 	25000
1.725 	400 	1.19269e-11 	25000
1.735 	400 	4.05927e-12 	25000
1.745 	400 	5.68683e-12 	25000
1.755 	400 	5.45792e-12 	25000
1.765 	400 	4.67764e-12 	25000
1.775 	400 	5.85818e-12 	25000
1.785 	400 	5.65681e-12 	25000
1.795 	400 	7.40648e-12 	25000
1.805 	400 	4.83607e-12 	25000
1.815 	400 	4.41835e-12 	25000
1.825 	400 	1.38595e-12 	25000
1.835 	400 	2.62293e-12 	25000
1.845 	400 	2.30782e-12 	25000
1.855 	400 	9.9835e-13 	25000
1.865 	400 	1.53109e-12 	25000
1.875 	400 	1.5014e-12 	25000
1.885 	400 	3.06234e-13 	25000
1.895 	400 	2.23593e-12 	25000
1.905 	400 	2.75907e-12 	25000
1.915 	400 	2.01556e-12 	25000
1.925 	400 	1.56927e-12 	25000
1.935 	400 	3.19318e-12 	25000
1.945 	400 	2.36525e-12 	25000
1.955 	400 	5.06657e-12 	25000
1.965 	400 	1.15787e-12 	25000
1.975 	400 	1.88793e-12 	25000
1.985 	400 	4.52294e-12 	25000
1.995 	400 	7.32158e-12 	25000
2.005 	400 	8.90999e-12 	25000
2.015 	400 	9.17376e-12 	25000
2.025 	400 	8.19848e-12 	25000
2.035 	400 	6.63191e-12 	25000
2.045 	400 	5.02699e-12 	25000
2.055 	400 	2.68092e-12 	25000
2.065 	400 	3.99154e-12 	25000
2.075 	400 	3.39033e-12 	25000
2.085 	400 	9.49489e-14 	25000
2.095 	400 	3.7846e-12 	25000
2.105 	400 	1.80276e-12 	25000
2.115 	400 	3.5198e-12 	25000
2.125 	400 	8.97507e-13 	25000
2.135 	400 	3.92872e-13 	25000
2.145 	400 	9.14693e-13 	25000
2.155 	400 	4.57404e-12 	25000
2.165 	400 	4.33578e-12 	25000
2.175 	400 	3.35629e-12 	25000
2.185 	400 	2.61563e-12 	25000
2.195 	400 	1.62433e-13 	25000
2.205 	400 	4.09901e-13 	25000
2.215 	400 	4.16937e-12 	25000
2.225 	400 	2.46228e-12 	25000
2.235 	400 	2.38133e-12 	25000
2.245 	400 	4.68944e-12 	25000
2.255 	400 	1.3423e-12 	25000
2.265 	400 	4.20965e-12 	25000
2.275 	400 	2.02164e-13 	25000
2.285 	400 	3.27516e-12 	25000
2.295 	400 	1.79407e-12 	25000
2.305 	400 	1.53922e-12 	25000
2.315 	400 	7.85359e-12 	25000
2.325 	400 	1.69595e-12 	25000
2.335 	400 	2.46078e-12 	25000
2.345 	400 	1.60717e-12 	25000
2.355 	400 	1.2284e-12 	25000
2.365 	400 	1.44351e-12 	25000
2.375 	400 	1.03012e-12 	25000
2.385 	400 	2.04109e-12 	25000
2.395 	400 	3.0731e-12 	25000
2.405 	400 	1.95732e-12 	25000
2.415 	400 	3.93124e-13 	25000
2.425 	400 	2.84326e-12 	25000
2.435 	400 	2.47395e-12 	25000
2.445 	400 	4.83835e-12 	25000
2.455 	400 	3.97732e-12 	25000
2.465 	400 	2.69635e-12 	25000
2.475 	400 	1.13398e-12 	25000
2.485 	400 	4.21101e-12 	25000
2.495 	400 	6.34177e-12 	25000
2.505 	400 	8.37219e-12 	25000
2.515 	400 	1.08684e-11 	25000
2.525 	400 	5.37515e-12 	25000
2.535 	400 	5.83837e-12 	25000
2.545 	400 	1.38176e-12 	25000
2.555 	400 	4.74661e-12 	25000
2.565 	400 	2.74949e-12 	25000
2.575 	400 	5.57861e-12 	25000
2.585 	400 	9.9498e-13 	25000
2.595 	400 	1.73312e-12 	25000
2.605 	400 	1.97881e-13 	25000
2.615 	400 	5.92602e-12 	25000
2.625 	400 	1.40693e-12 	25000
2.635 	400 	1.7517e-12 	25000
2.645 	400 	1.44634e-12 	25000
2.655 	400 	3.0025e-12 	25000
2.665 	400 	1.68079e-12 	25000
2.675 	400 	1.20874e-13 	25000
2.685 	400 	1.57313e-12 	25000
2.695 	400 	3.17271e-12 	25000
2.705 	400 	4.57065e-12 	25000
2.715 	400 	1.21488e-13 	25000
2.725 	400 	7.42074e-13 	25000
2.735 	400 	1.54738e-12 	25000
2.745 	400 	2.09009e-12 	25000
2.755 	400 	6.08499e-13 	25000
2.765 	400 	2.32913e-12 	25000
2.775 	400 	1.60817e-12 	25000
2.785 	400 	3.39644e-12 	25000
2.795 	400 	3.33347e-12 	25000
2.805 	400 	3.15578e-12 	25000
2.815 	400 	8.68186e-13 	25000
2.825 	400 	9.71489e-13 	25000
2.835 	400 	5.20144e-12 	25000
2.845 	400 	1.7811e-12 	25000
2.855 	400 	2.68825e-12 	25000
2.865 	400 	8.71073e-13 	25000
2.875 	400 	4.14348e-13 	25000
2.885 	400 	1.6269e-12 	25000
2.895 	400 	1.80471e-12 	25000
2.905 	400 	1.09102e-12 	25000
2.915 	400 	2.61979e-12 	25000
2.925 	400 	2.37786e-12 	25000
2.935 	400 	3.80364e-12 	25000
2.945 	400 	1.54467e-12 	25000
2.955 	400 	4.20068e-12 	25000
2.965 	400 	1.89654e-12 	25000
2.975 	400 	4.21781e-12 	25000
2.985 	400 	6.33521e-13 	25000
2.995 	400 	2.73018e-12 	25000
3.005 	400 	2.71652e-12 	25000
3.015 	400 	2.22523e-12 	25000
3.025 	400 	4.9336e-12 	25000
3.035 	400 	5.21346e-12 	25000
3.045 	400 	2.34611e-12 	25000
3.055 	400 	3.9649e-12 	25000
3.065 	400 	2.49653e-13 	25000
3.075 	400 	1.559e-12 	25000
3.085 	400 	4.03597e-12 	25000
3.095 	400 	1.00483e-13 	25000
3.105 	400 	3.63219e-13 	25000
3.115 	400 	2.40349e-13 	25000
3.125 	400 	1.46384e-12 	25000
3.135 	400 	2.80818e-13 	25000
3.145 	400 	4.0068e-13 	25000
3.155 	400 	5.82388e-14 	25000
3.165 	400 	4.63427e-12 	25000
3.175 	400 	1.47948e-12 	25000
3.185 	400 	1.12591e-12 	25000
3.195 	400 	2.38701e-12 	25000
3.205 	400 	3.86814e-13 	25000
3.215 	400 	2.82678e-12 	25000
3.225 	400 	1.41046e-12 	25000
3.235 	400 	1.22963e-12 	25000
3.245 	400 	5.02673e-12 	25000
3.255 	400 	4.8745e-12 	25000
3.265 	400 	5.65353e-12 	25000
3.275 	400 	6.55432e-12 	25000
3.285 	400 	3.88606e-12 	25000
3.295 	400 	4.01959e-12 	25000
3.305 	400 	3.5832e-12 	25000
3.315 	400 	8.62292e-15 	25000
3.325 	400 	2.15582e-12 	25000
3.335 	400 	1.30233e-12 	25000
3.345 	400 	1.58507e-12 	25000
3.355 	400 	1.50628e-14 	25000
3.365 	400 	2.27104e-13 	25000
3.375 	400 	1.88389e-12 	25000
3.385 	400 	3.34684e-12 	25000
3.395 	400 	4.24144e-12 	25000
3.405 	400 	6.87735e-12 	25000
3.415 	400 	9.81066e-12 	25000
3.425 	400 	1.05856e-11 	25000
3.435 	400 	9.68502e-12 	25000
3.445 	400 	9.62937e-12 	25000
3.455 	400 	7.64764e-12 	25000
3.465 	400 	6.35473e-12 	25000
3.475 	400 	1.84247e-12 	25000
3.485 	400 	3.11824e-12 	25000
3.495 	400 	2.05938e-12 	25000
3.505 	400 	1.16471e-12 	25000
3.515 	400 	1.44324e-12 	25000
3.525 	400 	1.28512e-12 	25000
3.535 	400 	9.17624e-14 	25000
3.545 	400 	1.83278e-12 	25000
3.555 	400 	1.47675e-12 	25000
3.565 	400 	2.99185e-12 	25000
3.575 	400 	9.12771e-13 	25000
3.585 	400 	3.79453e-13 	25000
3.595 	400 	8.48221e-13 	25000
3.605 	400 	6.84018e-13 	25000
3.615 	400 	2.31011e-13 	25000
3.625 	400 	2.65047e-12 	25000
3.635 	400 	2.23289e-12 	25000
3.645 	400 	4.41791e-12 	25000
3.655 	400 	3.23229e-12 	25000
3.665 	400 	3.82361e-12 	25000
3.675 	400 	5.45462e-12 	25000
3.685 	400 	4.70712e-12 	25000
3.695 	400 	1.018e-11 	25000
3.705 	400 	7.82743e-12 	25000
3.715 	400 	6.93093e-12 	25000
3.725 	400 	6.88787e-12 	25000
3.735 	400 	5.9881e-12 	25000
3.745 	400 	6.20225e-12 	25000
3.755 	400 	5.35428e-12 	25000
3.765 	400 	3.6619e-12 	25000
3.775 	400 	1.47132e-12 	25000
3.785 	400 	3.12285e-12 	25000
3.795 	400 	5.59514e-12 	25000
3.805 	400 	4.18414e-12 	25000
3.815 	400 	2.4923e-12 	25000
3.825 	400 	4.99063e-12 	25000
3.835 	400 	4.68831e-12 	25000
3.845 	400 	5.31862e-12 	25000
3.855 	400 	6.56063e-12 	25000
3.865 	400 	3.34162e-12 	25000
3.875 	400 	3.25181e-12 	25000
3.885 	400 	4.15903e-12 	25000
3.895 	400 	4.07793e-13 	25000
3.905 	400 	1.98288e-12 	25000
3.915 	400 	3.46368e-12 	25000
3.925 	400 	4.88273e-12 	25000
3.935 	400 	5.8184e-13 	25000
3.945 	400 	1.09631e-12 	25000
3.955 	400 	1.20748e-12 	25000
3.965 	400 	2.14423e-12 	25000
3.975 	400 	4.76963e-13 	25000
3.985 	400 	1.70099e-12 	25000
3.995 	400 	2.39184e-12 	25000
4.005 	400 	1.37433e-12 	25000
4.015 	400 	2.19673e-12 	25000
4.025 	400 	2.1514e-12 	25000
4.035 	400 	2.93166e-12 	25000
4.045 	400 	3.64048e-13 	25000
4.055 	400 	2.28316e-12 	25000
4.065 	400 	4.40908e-12 	25000
4.075 	400 	1.92725e-12 	25000
4.085 	400 	3.07059e-12 	25000
4.095 	400 	1.13926e-12 	25000
4.105 	400 	2.16468e-12 	25000
4.115 	400 	2.00509e-13 	25000
4.125 	400 	1.36834e-12 	25000
4.135 	400 	3.07986e-12 	25000
4.145 	400 	1.3431e-13 	25000
4.155 	400 	1.46391e-12 	25000
4.165 	400 	2.79516e-13 	25000
4.175 	400 	2.81698e-14 	25000
4.185 	400 	3.50679e-12 	25000
4.195 	400 	3.96583e-12 	25000
4.205 	400 	4.89267e-12 	25000
4.215 	400 	7.37663e-12 	25000
4.225 	400 	8.24272e-12 	25000
4.235 	400 	8.45668e-12 	25000
4.245 	400 	1.10573e-11 	25000
4.255 	400 	1.29088e-11 	25000