/*--------------------------------*- C++ -*----------------------------------*\
| =========                 |                                                 |
| \\      /  F ield         | OpenFOAM: The Open Source CFD Toolbox           |
|  \\    /   O peration     | Version:  4.1                                   |
|   \\  /    A nd           | Web:      www.OpenFOAM.org                      |
|    \\/     M anipulation  |                                                 |
\*---------------------------------------------------------------------------*/
FoamFile
{
    version     2.0;
    format      ascii;
    class       volScalarField;
    location    "0.0036";
    object      mag(U);
}
// * * * * * * * * * * * * * * * * * * * * * * * * * * * * * * * * * * * * * //

dimensions      [0 1 -1 0 0 0 0];

internalField   nonuniform List<scalar> 
1000
(
1.31026e-11
1.31101e-11
1.51777e-11
1.65295e-11
1.75731e-11
2.03025e-11
2.19362e-11
2.08041e-11
2.00649e-11
2.25485e-11
1.88917e-11
2.03624e-11
2.03345e-11
2.02857e-11
1.74431e-11
1.9746e-11
1.71699e-11
1.72943e-11
1.38776e-11
1.58837e-11
1.20336e-11
1.42576e-11
1.27466e-11
1.40092e-11
1.06126e-11
1.41349e-11
1.12548e-11
1.29546e-11
1.11771e-11
9.51651e-12
1.13267e-11
1.04445e-11
1.16941e-11
1.08827e-11
1.28994e-11
8.5858e-12
9.6299e-12
7.30618e-12
1.13211e-11
5.18262e-12
1.06491e-11
8.59926e-12
1.14796e-11
6.40581e-12
9.73946e-12
7.97231e-12
7.33437e-12
8.33856e-12
7.14732e-12
3.42989e-12
7.78772e-12
4.77476e-12
5.69207e-12
4.32314e-12
4.4203e-12
5.08195e-12
3.98735e-12
7.74569e-12
1.7482e-12
4.84221e-12
4.76692e-12
5.17514e-12
5.09041e-12
8.24956e-12
7.11284e-12
8.70519e-12
4.71857e-12
7.4763e-12
5.13625e-12
7.88355e-12
1.32861e-12
5.27242e-12
3.06633e-12
1.0441e-12
3.39682e-12
3.98196e-13
5.09631e-12
3.7221e-12
3.44985e-12
2.53912e-12
4.57005e-12
1.08758e-12
2.43723e-12
4.0254e-13
6.73658e-13
1.79419e-12
2.86866e-12
7.53241e-13
2.03052e-12
3.18713e-12
6.19785e-13
2.98872e-12
1.25148e-12
4.72392e-12
1.89263e-12
5.22925e-12
4.1007e-12
4.89536e-12
5.56662e-12
9.76079e-12
8.80901e-12
1.15613e-11
1.13417e-11
7.91303e-12
1.06188e-11
8.10329e-12
8.19735e-12
9.75923e-12
6.9304e-12
6.45839e-12
1.01945e-11
1.01694e-11
1.05463e-11
1.03849e-11
1.01682e-11
9.41187e-12
8.30364e-12
8.47846e-12
6.89848e-12
6.25556e-12
7.05376e-12
8.68748e-12
7.90531e-12
8.60591e-12
5.76955e-12
7.99464e-12
6.85845e-12
1.02399e-11
8.10392e-12
5.50105e-12
5.01933e-12
8.74584e-12
7.62128e-12
6.90984e-12
9.70388e-12
8.84452e-12
6.15766e-12
5.20023e-12
5.40342e-12
5.0719e-12
2.1074e-12
1.63863e-12
7.73891e-14
1.44855e-12
4.55628e-12
6.33969e-12
6.20755e-12
5.5211e-12
6.8305e-12
5.64153e-12
7.44708e-12
5.27076e-12
8.90349e-12
3.58724e-12
6.9438e-12
4.99289e-12
4.951e-12
7.00531e-12
7.53888e-12
7.97294e-12
7.5631e-12
5.7511e-12
6.11093e-12
6.78679e-12
6.42676e-12
8.975e-12
6.97882e-12
4.15834e-12
7.66621e-12
8.19891e-12
1.04124e-11
1.07191e-11
9.80075e-12
1.07976e-11
7.39309e-12
1.01514e-11
8.83533e-12
1.13358e-11
6.63926e-12
8.22126e-12
5.69842e-12
9.04364e-12
1.02627e-11
1.15443e-11
1.02611e-11
1.21434e-11
1.00235e-11
1.00086e-11
7.4207e-12
6.36481e-12
7.76892e-12
4.58208e-12
5.92534e-12
1.77325e-12
5.58644e-12
2.63447e-12
4.38283e-12
5.16436e-13
1.60953e-12
8.0287e-13
4.75133e-12
1.93261e-13
1.60348e-12
1.79257e-12
1.93071e-12
3.10916e-12
4.4702e-12
3.82318e-12
5.16746e-12
5.93324e-12
8.81285e-12
8.68375e-12
8.75998e-12
9.25322e-12
8.17965e-12
1.20153e-11
8.00976e-12
1.33315e-11
8.96222e-12
1.17899e-11
9.81358e-12
1.4493e-11
8.6958e-12
1.28862e-11
6.65524e-12
1.24922e-11
6.10583e-12
9.33659e-12
8.18645e-12
9.21802e-12
7.14148e-12
4.80351e-12
7.02934e-12
4.83762e-12
7.94269e-12
5.30671e-12
7.46141e-12
3.03014e-12
4.28534e-12
1.43327e-12
5.86529e-12
1.39566e-12
6.17873e-12
5.49877e-13
4.48368e-12
3.2079e-12
6.91569e-12
4.64661e-12
5.06053e-12
4.79796e-12
5.02587e-12
2.66113e-12
3.60908e-12
1.27872e-12
3.79288e-12
2.19865e-12
4.29359e-12
1.83809e-12
5.06002e-13
1.91128e-13
3.06494e-12
1.85486e-13
8.92973e-14
2.25267e-12
3.73182e-12
4.11359e-12
3.91201e-12
6.11706e-12
4.30037e-12
4.24121e-12
6.47003e-12
8.22723e-12
5.76079e-12
5.05912e-12
5.93274e-12
9.89354e-12
6.98858e-12
8.85409e-12
4.91449e-12
8.32306e-12
4.47472e-12
6.82047e-12
2.80078e-12
3.00505e-12
2.90268e-12
5.43634e-12
5.23773e-12
6.54343e-12
5.89033e-12
9.11621e-12
6.96175e-12
7.2648e-12
1.0558e-11
1.01204e-11
8.70983e-12
7.02831e-12
5.76849e-12
7.31658e-12
7.3931e-12
4.93104e-12
6.0468e-12
4.05666e-12
7.21039e-12
6.16779e-12
8.11026e-12
5.50067e-12
5.51938e-12
1.17371e-11
2.24781e-11
5.15299e-11
1.20182e-10
2.77397e-10
6.27767e-10
1.41029e-09
3.12758e-09
6.86962e-09
1.4936e-08
3.21677e-08
6.86084e-08
1.4492e-07
3.03118e-07
6.27715e-07
1.2868e-06
2.61082e-06
5.24185e-06
1.04123e-05
2.04585e-05
3.97529e-05
7.63714e-05
0.000145028
0.000272158
0.00050456
0.000923847
0.0016701
0.00297984
0.00524551
0.00910658
0.015585
0.0262808
0.0436444
0.07134
0.114707
0.181305
0.281505
0.429022
0.641252
0.939166
1.34645
1.88745
2.58314
3.44372
4.46263
5.62298
6.90911
8.30863
9.80986
11.401
13.0703
14.8071
16.6015
18.445
20.3304
22.2516
24.2033
26.1815
28.1824
30.2032
32.2415
34.295
36.3622
38.4414
40.5315
42.6312
44.7396
46.8559
48.9794
51.1092
53.245
55.386
57.5319
59.6821
61.8363
63.9942
66.1552
68.3192
70.4857
72.6546
74.8255
76.9981
79.1723
81.3477
83.5241
85.7012
87.8789
90.0569
92.2349
94.4127
96.5901
98.7669
100.943
103.117
105.291
107.462
109.632
111.799
113.964
116.126
118.285
120.44
122.591
124.738
126.881
129.018
131.149
133.275
135.394
137.506
139.61
141.706
143.792
145.869
147.935
149.989
152.031
154.059
156.072
158.07
160.05
162.011
163.952
165.871
167.765
169.634
171.473
173.283
175.057
176.797
178.495
180.152
181.761
183.32
184.825
186.269
187.651
188.964
190.205
191.369
192.45
193.446
194.354
195.17
195.893
196.524
197.063
197.513
197.881
198.171
198.389
198.549
198.66
198.726
198.761
198.775
198.779
198.779
198.777
198.772
198.76
198.738
198.709
198.678
198.652
198.633
198.618
198.607
198.599
198.594
198.591
198.589
198.588
198.587
198.586
198.585
198.584
198.583
198.582
198.581
198.58
198.579
198.578
198.577
198.577
198.576
198.576
198.575
198.574
198.573
198.573
198.572
198.571
198.571
198.57
198.569
198.569
198.568
198.567
198.566
198.565
198.565
198.564
198.564
198.563
198.563
198.562
198.562
198.561
198.561
198.56
198.559
198.559
198.558
198.557
198.557
198.556
198.555
198.554
198.554
198.553
198.552
198.551
198.551
198.55
198.549
198.549
198.549
198.549
198.548
198.548
198.548
198.547
198.545
198.544
198.544
198.544
198.543
198.542
198.542
198.542
198.542
198.541
198.54
198.539
198.539
198.54
198.541
198.542
198.54
198.537
198.535
198.534
198.535
198.534
198.535
198.543
198.56
198.591
198.67
198.842
198.911
198.775
198.622
198.518
198.461
198.461
198.495
198.51
198.496
198.495
198.526
198.549
198.529
198.501
198.514
198.547
198.549
198.517
198.501
198.524
198.545
198.524
198.494
198.505
198.537
198.532
198.496
198.491
198.527
198.544
198.512
198.483
198.507
198.543
198.53
198.49
198.488
198.525
198.54
198.507
198.479
198.502
198.535
198.52
198.481
198.482
198.519
198.53
198.493
198.468
198.495
198.527
198.506
198.465
198.469
198.507
198.513
198.472
198.448
198.477
198.506
198.48
198.437
198.442
198.48
198.479
198.433
198.408
198.437
198.461
198.428
198.381
198.386
198.419
198.408
198.354
198.327
198.353
198.367
198.321
198.267
198.266
198.289
198.265
198.199
198.162
198.173
198.17
198.109
198.043
198.024
198.026
197.978
197.894
197.838
197.821
197.786
197.694
197.599
197.543
197.5
197.407
197.271
197.164
197.094
197
196.824
196.64
196.511
196.401
196.193
195.902
195.665
195.501
195.274
194.854
194.429
194.14
193.811
193.149
192.347
191.535
190.22
187.609
181.189
161.144
104.573
37.1246
9.8134
2.40311
0.57257
0.135422
0.0319852
0.00755222
0.00178298
0.0004209
9.93535e-05
2.34514e-05
5.53522e-06
1.30642e-06
3.08332e-07
7.27682e-08
1.7174e-08
4.05187e-09
9.53282e-10
2.20726e-10
4.79916e-11
6.11926e-12
8.79788e-13
5.18013e-12
5.92462e-12
4.24894e-12
3.97803e-12
6.90489e-12
7.71321e-12
7.20413e-12
8.00753e-12
3.34302e-12
7.82028e-12
5.9102e-12
9.71819e-12
6.53543e-12
9.9604e-12
5.17153e-12
6.45984e-12
2.0441e-12
4.74772e-12
9.42474e-13
1.83925e-12
2.25215e-12
3.54763e-12
8.80408e-14
4.31073e-12
2.60311e-12
4.16057e-12
2.94442e-12
4.17909e-12
2.43389e-12
4.3651e-12
5.37085e-12
2.5181e-12
1.45664e-12
3.11547e-12
2.7532e-12
8.3289e-13
2.42719e-13
2.13553e-12
4.34748e-12
1.06795e-12
2.74355e-12
7.04762e-13
2.4426e-12
8.30971e-13
8.52304e-13
1.22003e-12
2.06265e-12
2.17062e-12
6.26463e-12
4.69569e-12
5.05478e-12
7.81765e-12
6.8224e-12
5.58983e-12
2.37117e-12
4.53106e-12
4.55402e-12
6.13423e-12
4.20675e-12
4.10744e-12
1.44037e-12
1.0553e-12
1.12719e-12
1.18385e-12
1.0029e-12
1.14713e-12
3.22389e-14
1.61311e-12
2.47107e-13
1.6586e-12
1.56358e-12
1.04544e-12
1.93302e-12
8.73931e-14
8.83585e-13
8.08679e-13
2.75404e-12
7.46504e-13
2.32979e-12
2.68923e-14
3.80129e-12
1.79735e-12
2.87997e-12
1.69982e-12
3.44967e-13
1.15272e-12
1.70708e-12
4.17906e-12
3.63035e-12
7.92805e-12
2.94444e-12
5.65625e-12
6.7208e-13
7.91209e-13
5.14644e-12
2.91279e-12
2.77355e-12
4.54336e-12
5.60173e-12
8.32474e-12
8.4618e-12
8.47019e-12
7.83832e-12
9.8354e-12
8.36212e-12
8.30915e-12
6.04638e-12
5.12314e-12
4.96533e-12
2.62895e-12
2.21328e-12
3.19918e-12
1.57238e-12
2.14775e-14
9.05126e-13
3.6335e-13
1.87094e-13
1.5592e-12
4.48687e-12
2.90237e-12
4.46288e-12
4.44979e-12
8.10227e-12
9.15903e-12
8.2533e-12
7.38394e-12
8.84153e-12
9.50963e-12
8.38451e-12
7.70715e-12
1.00648e-11
8.15063e-12
8.68202e-12
7.57208e-12
9.16923e-12
7.56962e-12
6.97852e-12
8.4917e-12
8.96026e-12
6.1032e-12
6.1971e-12
4.6121e-12
3.9743e-12
5.63981e-12
8.21741e-12
8.42986e-12
8.35642e-12
8.16836e-12
6.05595e-12
7.30104e-12
4.52947e-12
4.22487e-12
3.00974e-12
3.6487e-13
2.63127e-12
5.07525e-12
6.02584e-12
4.69255e-12
2.37796e-12
2.09482e-12
4.75676e-14
2.28279e-13
1.82551e-12
9.09305e-13
1.88132e-12
1.69249e-12
1.29825e-12
3.01951e-12
2.69477e-12
3.78025e-12
4.25179e-12
2.51333e-12
3.54174e-12
3.0719e-12
3.99262e-12
2.29086e-12
2.00414e-12
4.86681e-12
2.08573e-12
5.02833e-12
6.26517e-13
7.59137e-13
1.68469e-12
2.91408e-12
1.61806e-12
2.81758e-12
2.30005e-12
2.05035e-12
2.69924e-12
1.93696e-12
4.1691e-12
2.66522e-12
3.32738e-12
5.69163e-13
4.44992e-12
7.85737e-13
7.01377e-13
2.50562e-12
5.09448e-13
1.519e-12
3.55956e-13
2.81388e-13
2.19141e-13
3.19089e-12
5.65694e-12
9.91738e-12
9.92646e-12
1.15247e-11
1.17686e-11
1.08148e-11
8.6358e-12
1.00192e-11
8.36588e-12
8.39035e-12
8.6786e-12
9.42718e-12
9.07237e-12
1.16313e-11
1.25006e-11
1.02201e-11
9.80589e-12
1.1224e-11
1.02775e-11
1.21879e-11
1.32833e-11
1.46112e-11
1.6489e-11
1.85062e-11
1.90919e-11
2.22931e-11
2.00345e-11
2.19289e-11
2.0694e-11
2.25205e-11
2.17681e-11
2.46726e-11
2.28981e-11
2.35723e-11
2.16148e-11
2.13283e-11
1.83192e-11
1.7153e-11
1.86696e-11
1.81498e-11
1.655e-11
1.59091e-11
1.71285e-11
1.73278e-11
1.78038e-11
1.72579e-11
1.8574e-11
1.51526e-11
1.62075e-11
1.43218e-11
1.5108e-11
1.41987e-11
1.50007e-11
1.20579e-11
1.45171e-11
1.30644e-11
1.57771e-11
1.58221e-11
1.8765e-11
1.78702e-11
1.8729e-11
2.05145e-11
1.94846e-11
1.90872e-11
1.67226e-11
1.64992e-11
1.68749e-11
1.90838e-11
1.90842e-11
2.08832e-11
1.87388e-11
1.95797e-11
1.59002e-11
1.94463e-11
1.92678e-11
2.35315e-11
2.09345e-11
2.47582e-11
2.24839e-11
)
;

boundaryField
{
    sides
    {
        type            calculated;
        value           nonuniform List<scalar> 2(2.24839e-11 1.31026e-11);
    }
    empty
    {
        type            empty;
    }
}


// ************************************************************************* //
