/*--------------------------------*- C++ -*----------------------------------*\
| =========                 |                                                 |
| \\      /  F ield         | OpenFOAM: The Open Source CFD Toolbox           |
|  \\    /   O peration     | Version:  4.1                                   |
|   \\  /    A nd           | Web:      www.OpenFOAM.org                      |
|    \\/     M anipulation  |                                                 |
\*---------------------------------------------------------------------------*/
FoamFile
{
    version     2.0;
    format      ascii;
    class       volScalarField;
    location    "0.0036";
    object      p;
}
// * * * * * * * * * * * * * * * * * * * * * * * * * * * * * * * * * * * * * //

dimensions      [1 -1 -2 0 0 0 0];

internalField   nonuniform List<scalar> 
1000
(
100000
100000
100000
100000
100000
100000
100000
100000
100000
100000
100000
100000
100000
100000
100000
100000
100000
100000
100000
100000
100000
100000
100000
100000
100000
100000
100000
100000
100000
100000
100000
100000
100000
100000
100000
100000
100000
100000
100000
100000
100000
100000
100000
100000
100000
100000
100000
100000
100000
100000
100000
100000
100000
100000
100000
100000
100000
100000
100000
100000
100000
100000
100000
100000
100000
100000
100000
100000
100000
100000
100000
100000
100000
100000
100000
100000
100000
100000
100000
100000
100000
100000
100000
100000
100000
100000
100000
100000
100000
100000
100000
100000
100000
100000
100000
100000
100000
100000
100000
100000
100000
100000
100000
100000
100000
100000
100000
100000
100000
100000
100000
100000
100000
100000
100000
100000
100000
100000
100000
100000
100000
100000
100000
100000
100000
100000
100000
100000
100000
100000
100000
100000
100000
100000
100000
100000
100000
100000
100000
100000
100000
100000
100000
100000
100000
100000
100000
100000
100000
100000
100000
100000
100000
100000
100000
100000
100000
100000
100000
100000
100000
100000
100000
100000
100000
100000
100000
100000
100000
100000
100000
100000
100000
100000
100000
100000
100000
100000
100000
100000
100000
100000
100000
100000
100000
100000
100000
100000
100000
100000
100000
100000
100000
100000
100000
100000
100000
100000
100000
100000
100000
100000
100000
100000
100000
100000
100000
100000
100000
100000
100000
100000
100000
100000
100000
100000
100000
100000
100000
100000
100000
100000
100000
100000
100000
100000
100000
100000
100000
100000
100000
100000
100000
100000
100000
100000
100000
100000
100000
100000
100000
100000
100000
100000
100000
100000
100000
100000
100000
100000
100000
100000
100000
100000
100000
100000
100000
100000
100000
100000
100000
100000
100000
100000
100000
100000
100000
100000
100000
100000
100000
100000
100000
100000
100000
100000
100000
100000
100000
100000
100000
100000
100000
100000
100000
100000
100000
100000
100000
100000
100000
100000
100000
100000
100000
100000
100000
100000
100000
100000
100000
100000
100000
100000
100000
100000
100000
100000
100000
100000
100000
100000
100000
100000
100000
100000
100000
100000
100000
100000
100000
100000
100000
100000
100000
100000
100000
100000
100000
100000
99999.9
99999.8
99999.7
99999.4
99999
99998.2
99996.9
99994.6
99990.9
99985
99975.4
99960.4
99937.4
99902.7
99851.6
99778
99674.6
99533.2
99345.3
99103.4
98803.7
98449.4
98047.9
97605.1
97125.6
96613.7
96074
95510.7
94927.9
94329.1
93717.6
93095.8
92466.1
91830.2
91189.7
90545.8
89899.6
89252
88603.6
87955.1
87307
86659.8
86013.8
85369.3
84726.7
84086.1
83447.8
82812
82178.9
81548.5
80921
80296.6
79675.3
79057.3
78442.5
77831.2
77223.3
76619
76018.3
75421.2
74827.9
74238.2
73652.4
73070.4
72492.3
71918.1
71347.9
70781.7
70219.5
69661.4
69107.4
68557.5
68011.8
67470.3
66933.1
66400.2
65871.6
65347.4
64827.6
64312.2
63801.5
63295.2
62793.7
62296.8
61804.7
61317.4
60835.1
60357.7
59885.5
59418.4
58956.7
58500.4
58049.6
57604.6
57165.4
56732.2
56305.2
55884.6
55470.7
55063.7
54663.8
54271.4
53886.7
53510.1
53142.1
52782.8
52433.3
52093
51763.9
51444.9
51138.2
50843.2
50561.1
50292.8
50038.4
49799.4
49575.8
49368.4
49178.1
49005.2
48849.8
48712.1
48592.5
48489.8
48403.9
48334.5
48278.7
48236.1
48206.1
48184.6
48171.4
48163.7
48161.2
48161
48161.1
48161.5
48162.3
48164
48167.4
48172.6
48177.6
48182.5
48186.7
48189.7
48191.7
48193.1
48194
48194.4
48194.7
48194.9
48195.1
48195.3
48195.5
48195.7
48195.8
48196
48196.1
48196.2
48196.3
48196.4
48196.5
48196.6
48196.7
48196.8
48196.9
48197
48197.1
48197.1
48197.2
48197.3
48197.4
48197.6
48197.6
48197.7
48197.8
48197.8
48197.9
48198
48198.1
48198.2
48198.3
48198.4
48198.5
48198.6
48198.7
48198.7
48198.8
48198.9
48198.9
48199
48199
48199.1
48199.1
48199.1
48199.2
48199.2
48199.2
48199.2
48199.3
48199.3
48199.4
48199.5
48199.6
48199.7
48199.9
48200
48200.1
48200.3
48200.6
48200.3
48199.4
48199.3
48199.8
48200.1
48200.2
48200.2
48200.3
48200.3
48200.3
48200.4
48200.1
48200.1
48200.6
48201.1
48201.7
48201.7
48200.8
48200.1
48200.1
48200.9
48201.2
48201
48200.3
48200.5
48202.7
48203.9
48203.3
48204.9
48200.6
48194.1
48200.4
48200.3
48191.8
48197.6
48207.9
48207.2
48193.4
48191.5
48205.8
48211.3
48198.8
48189.6
48197.3
48210.5
48209.5
48193.7
48190.2
48204.1
48211.4
48200.5
48189.4
48197.2
48211.2
48207
48189.1
48189.9
48209.2
48212.9
48194.9
48186.5
48200.4
48213.2
48205.7
48188.2
48190.1
48209.5
48212.6
48194.3
48186.5
48200.1
48212.5
48204.3
48187.2
48190.2
48209.7
48211.3
48191.8
48185.3
48201.4
48212.5
48201.1
48185.1
48190
48209.2
48209.5
48188.8
48183.3
48200.5
48210.8
48197.4
48182.1
48188.2
48207
48205.7
48183.9
48179.5
48197.4
48206.7
48190.7
48175.9
48183.1
48201.7
48197.8
48174.5
48171.3
48190
48197.6
48177.5
48163.9
48171.1
48188.3
48181.9
48158
48154.9
48170.7
48176.9
48154.2
48141.5
48145.7
48159.7
48149
48124.9
48121.1
48130
48133.8
48105.9
48094.1
48093.3
48101.7
48085.7
48054.4
48047.2
48048.5
48050.9
48003.3
47980
47974.2
47983.1
47949.5
47886.6
47868.6
47868.7
47865.1
47753.4
47703.4
47691.3
47702.6
47589.1
47441.6
47364.9
47240.2
46994.1
46327.2
44061.9
35314.3
28047
25805.2
25196
25046.6
25011
25002.6
25000.6
25000.1
25000
25000
25000
25000
25000
25000
25000
25000
25000
25000
25000
25000
25000
25000
25000
25000
25000
25000
25000
25000
25000
25000
25000
25000
25000
25000
25000
25000
25000
25000
25000
25000
25000
25000
25000
25000
25000
25000
25000
25000
25000
25000
25000
25000
25000
25000
25000
25000
25000
25000
25000
25000
25000
25000
25000
25000
25000
25000
25000
25000
25000
25000
25000
25000
25000
25000
25000
25000
25000
25000
25000
25000
25000
25000
25000
25000
25000
25000
25000
25000
25000
25000
25000
25000
25000
25000
25000
25000
25000
25000
25000
25000
25000
25000
25000
25000
25000
25000
25000
25000
25000
25000
25000
25000
25000
25000
25000
25000
25000
25000
25000
25000
25000
25000
25000
25000
25000
25000
25000
25000
25000
25000
25000
25000
25000
25000
25000
25000
25000
25000
25000
25000
25000
25000
25000
25000
25000
25000
25000
25000
25000
25000
25000
25000
25000
25000
25000
25000
25000
25000
25000
25000
25000
25000
25000
25000
25000
25000
25000
25000
25000
25000
25000
25000
25000
25000
25000
25000
25000
25000
25000
25000
25000
25000
25000
25000
25000
25000
25000
25000
25000
25000
25000
25000
25000
25000
25000
25000
25000
25000
25000
25000
25000
25000
25000
25000
25000
25000
25000
25000
25000
25000
25000
25000
25000
25000
25000
25000
25000
25000
25000
25000
25000
25000
25000
25000
25000
25000
25000
25000
25000
25000
25000
25000
25000
25000
25000
25000
25000
25000
25000
25000
25000
25000
25000
25000
25000
25000
25000
25000
25000
25000
25000
25000
25000
25000
25000
25000
25000
25000
25000
25000
25000
25000
25000
25000
25000
25000
25000
25000
25000
25000
25000
25000
25000
25000
25000
25000
25000
25000
25000
25000
25000
25000
25000
25000
25000
25000
25000
25000
25000
25000
25000
25000
25000
25000
25000
25000
25000
25000
25000
25000
25000
25000
25000
25000
25000
)
;

boundaryField
{
    sides
    {
        type            zeroGradient;
    }
    empty
    {
        type            empty;
    }
}


// ************************************************************************* //
