/*--------------------------------*- C++ -*----------------------------------*\
| =========                 |                                                 |
| \\      /  F ield         | OpenFOAM: The Open Source CFD Toolbox           |
|  \\    /   O peration     | Version:  4.1                                   |
|   \\  /    A nd           | Web:      www.OpenFOAM.org                      |
|    \\/     M anipulation  |                                                 |
\*---------------------------------------------------------------------------*/
FoamFile
{
    version     2.0;
    format      ascii;
    class       surfaceScalarField;
    location    "0.0036";
    object      phi;
}
// * * * * * * * * * * * * * * * * * * * * * * * * * * * * * * * * * * * * * //

dimensions      [1 0 -1 0 0 0 0];

internalField   nonuniform List<scalar> 
999
(
-4.53326e-11
-4.82672e-11
-5.46621e-11
-6.01119e-11
-6.52278e-11
-7.52749e-11
-7.43867e-11
-6.97256e-11
-7.40386e-11
-7.32214e-11
-6.57607e-11
-7.28093e-11
-7.04574e-11
-6.43183e-11
-6.55476e-11
-6.52776e-11
-5.90461e-11
-5.33475e-11
-5.23883e-11
-4.80469e-11
-4.62705e-11
-4.69171e-11
-4.71445e-11
-4.13962e-11
-4.42455e-11
-4.39115e-11
-4.10054e-11
-4.20712e-11
-3.68416e-11
-3.55769e-11
-3.76303e-11
-3.93925e-11
-3.83409e-11
-4.27463e-11
-3.54419e-11
-3.31468e-11
-2.86704e-11
-3.31184e-11
-2.76685e-11
-2.8173e-11
-3.40279e-11
-3.34808e-11
-3.30189e-11
-2.62546e-11
-3.22729e-11
-2.57643e-11
-2.6958e-11
-2.72706e-11
-1.91491e-11
-1.81046e-11
-2.40092e-11
-1.63425e-11
-1.89573e-11
-1.43388e-11
-1.75717e-11
-1.47438e-11
-2.12381e-11
-1.73941e-11
-1.0381e-11
-1.79199e-11
-1.62927e-11
-1.90497e-11
-2.23395e-11
-2.61835e-11
-2.85141e-11
-2.25526e-11
-2.06697e-11
-2.15152e-11
-2.33342e-11
-1.68114e-11
-1.03171e-11
-1.63709e-11
-6.0254e-12
3.55982e-12
7.35412e-12
8.51941e-12
1.64704e-11
1.15961e-11
1.13758e-11
1.15392e-11
1.03952e-11
6.60094e-12
4.27036e-12
2.59348e-12
3.41771e-12
-1.9682e-12
-5.4996e-12
-5.27223e-12
1.86873e-12
7.21911e-12
5.69145e-12
2.96296e-12
5.17986e-12
1.3344e-11
1.08216e-11
1.79057e-11
1.43459e-11
1.83249e-11
2.77964e-11
3.0191e-11
3.74527e-11
4.15454e-11
3.11076e-11
3.33387e-11
3.43547e-11
2.6894e-11
3.20242e-11
2.93596e-11
2.2915e-11
2.82725e-11
3.51648e-11
3.6529e-11
3.70477e-11
3.53069e-11
3.5314e-11
2.94307e-11
2.9317e-11
2.88836e-11
2.19202e-11
2.21974e-11
2.79456e-11
2.93099e-11
2.80238e-11
2.44356e-11
2.34124e-11
2.72209e-11
2.86562e-11
3.13847e-11
2.48406e-11
1.72733e-11
2.5274e-11
2.74483e-11
2.60272e-11
2.77822e-11
3.36087e-11
2.5338e-11
1.88791e-11
1.92131e-11
1.7323e-11
1.33227e-11
5.96145e-12
3.45324e-12
2.359e-12
1.08713e-11
1.92486e-11
2.13873e-11
2.17639e-11
2.0151e-11
2.29008e-11
2.14584e-11
2.33271e-11
2.36184e-11
2.26805e-11
1.74083e-11
2.16644e-11
1.6783e-11
2.05134e-11
2.60627e-11
2.60059e-11
2.65388e-11
2.51603e-11
1.95755e-11
2.13092e-11
2.23466e-11
2.88338e-11
2.64109e-11
1.87441e-11
2.07194e-11
2.77893e-11
3.1406e-11
3.69482e-11
3.70477e-11
3.57545e-11
3.18252e-11
2.90896e-11
3.43761e-11
3.38503e-11
3.19247e-11
2.54445e-11
2.39382e-11
2.63469e-11
3.31966e-11
3.83551e-11
3.67777e-11
3.93001e-11
3.91438e-11
3.54987e-11
3.13136e-11
2.41727e-11
2.29647e-11
2.224e-11
1.91207e-11
1.30882e-11
1.21503e-11
1.46088e-11
1.33227e-11
5.6275e-12
2.59348e-12
3.50298e-12
1.05587e-11
7.70228e-12
2.73559e-12
5.1017e-12
7.41807e-12
8.16414e-12
1.23777e-11
1.50848e-11
1.6172e-11
1.8872e-11
2.50395e-11
3.08304e-11
3.03189e-11
3.22444e-11
2.89262e-11
3.63301e-11
3.36797e-11
3.86109e-11
3.75806e-11
3.63158e-11
3.79856e-11
4.15668e-11
4.13323e-11
3.6394e-11
3.471e-11
3.21947e-11
3.29337e-11
2.77041e-11
2.90115e-11
3.22373e-11
2.67306e-11
2.17071e-11
2.03499e-11
2.02434e-11
2.18492e-11
2.34479e-11
2.27871e-11
1.68683e-11
1.43388e-11
8.87468e-12
1.30669e-11
1.17453e-11
1.48148e-11
1.0516e-11
9.05942e-12
1.328e-11
1.8467e-11
2.02647e-11
1.59375e-11
1.70246e-11
1.77423e-11
1.32587e-11
1.12834e-11
8.14282e-12
8.15703e-12
1.14042e-11
1.0516e-11
1.15037e-11
3.67351e-12
1.39977e-12
4.98801e-12
6.48015e-12
3.83693e-13
4.63274e-12
9.39337e-12
1.48574e-11
1.3074e-11
1.69393e-11
1.80478e-11
1.54401e-11
1.81117e-11
2.46629e-11
2.56719e-11
1.7998e-11
2.00373e-11
2.60272e-11
2.93596e-11
3.01981e-11
2.20197e-11
2.332e-11
2.18776e-11
2.09752e-11
1.58309e-11
9.61364e-12
1.15605e-11
1.328e-11
1.93765e-11
1.94902e-11
2.23963e-11
2.66027e-11
2.77609e-11
2.42366e-11
3.03686e-11
3.68487e-11
3.29834e-11
2.66525e-11
2.1771e-11
2.39027e-11
2.51106e-11
2.14158e-11
1.87867e-11
1.8062e-11
1.89715e-11
2.28724e-11
2.48335e-11
2.51177e-11
1.7792e-11
2.84714e-11
5.53655e-11
1.21481e-10
2.81013e-10
6.51262e-10
1.48622e-09
3.34906e-09
7.46623e-09
1.64653e-08
3.59522e-08
7.77466e-08
1.66511e-07
3.53189e-07
7.41887e-07
1.54302e-06
3.17715e-06
6.47538e-06
1.3061e-05
2.60667e-05
5.14645e-05
0.000100496
0.000194049
0.000370417
0.000698839
0.00130272
0.00239878
0.00436174
0.00782916
0.0138677
0.0242302
0.041744
0.0708797
0.118557
0.195243
0.316384
0.50416
0.789473
1.21393
1.83142
2.70855
3.92313
5.55933
7.69803
10.3993
13.6683
17.4357
21.6272
26.1903
31.079
36.2464
41.6463
47.2351
52.9735
58.8272
64.7667
70.7673
76.8086
82.8735
88.9481
95.0209
101.082
107.125
113.141
119.126
125.075
130.985
136.851
142.671
148.443
154.164
159.833
165.449
171.009
176.513
181.96
187.349
192.679
197.95
203.161
208.312
213.402
218.431
223.399
228.305
233.15
237.933
242.654
247.313
251.91
256.445
260.917
265.328
269.677
273.963
278.188
282.351
286.451
290.49
294.468
298.383
302.237
306.03
309.76
313.43
317.038
320.585
324.07
327.494
330.856
334.157
337.397
340.575
343.692
346.747
349.74
352.67
355.538
358.344
361.086
363.765
366.381
368.931
371.417
373.835
376.19
378.472
380.696
382.831
384.925
386.906
388.862
390.696
392.478
394.198
395.767
397.37
398.755
400.149
401.444
402.559
403.724
404.685
405.55
406.431
407.086
407.693
408.28
408.672
409.024
409.357
409.547
409.685
409.834
409.901
409.919
409.94
409.953
409.948
409.932
409.921
409.911
409.898
409.88
409.847
409.822
409.803
409.787
409.776
409.765
409.755
409.749
409.745
409.739
409.734
409.731
409.728
409.723
409.719
409.715
409.711
409.705
409.701
409.697
409.693
409.688
409.684
409.681
409.676
409.67
409.666
409.662
409.655
409.65
409.646
409.641
409.635
409.63
409.624
409.617
409.611
409.605
409.597
409.592
409.587
409.58
409.572
409.566
409.561
409.553
409.544
409.536
409.53
409.522
409.511
409.5
409.492
409.485
409.474
409.459
409.447
409.44
409.432
409.419
409.402
409.385
409.373
409.367
409.361
409.347
409.326
409.307
409.296
409.288
409.244
409.22
409.19
409.165
409.134
409.115
409.103
409.088
409.06
409.002
408.942
408.889
408.877
408.877
408.867
408.83
408.705
408.514
408.381
408.296
408.281
408.281
408.317
408.499
408.681
408.786
408.792
408
401.7
379.062
354.447
333.178
315.788
302.508
293.109
286.266
281.249
277.923
276.093
275.109
274.304
273.525
273.26
273.537
273.574
273.253
273.041
273.177
273.493
273.463
273.085
273.059
273.475
273.555
273.145
273.001
273.334
273.582
273.403
273.029
273.083
273.536
273.593
273.115
272.998
273.372
273.593
273.397
273.042
273.1
273.539
273.579
273.099
273.002
273.414
273.61
273.343
273.015
273.135
273.564
273.569
273.074
272.989
273.448
273.616
273.292
272.995
273.148
273.566
273.539
273.038
272.967
273.454
273.606
273.212
272.95
273.138
273.545
273.477
272.973
272.924
273.425
273.556
273.072
272.858
273.092
273.482
273.344
272.845
272.812
273.301
273.426
272.878
272.711
272.899
273.27
273.088
272.62
272.6
273
273.125
272.514
272.415
272.53
272.867
272.581
272.145
272.128
272.343
272.502
271.733
271.64
271.713
272.062
271.621
270.897
270.889
271.139
271.408
269.869
269.662
269.824
270.479
269.252
267.862
267.816
268.4
268.587
264.917
264.118
263.525
263.445
260.411
241.57
198.139
64.8722
18.8736
4.72114
1.12927
0.267296
0.0631312
0.0149065
0.00351938
0.000830846
0.000196128
4.62953e-05
1.09274e-05
2.57915e-06
6.08724e-07
1.43665e-07
3.39056e-08
8.00156e-09
1.88663e-09
4.42441e-10
1.01055e-10
2.00604e-11
1.77458e-12
-2.93454e-12
-4.65938e-12
-4.63274e-12
-3.36442e-12
-4.98446e-12
-6.24389e-12
-6.21014e-12
-6.92069e-12
-5.05551e-12
-4.52793e-12
-6.18527e-12
-6.64357e-12
-7.4234e-12
-6.90292e-12
-6.41975e-12
-5.33795e-12
-3.40705e-12
-2.92211e-12
-2.79243e-12
-1.18305e-12
-1.53122e-12
-2.72848e-12
-1.6378e-12
-2.00373e-12
-2.92033e-12
-2.90434e-12
-3.17613e-12
-2.93454e-12
-2.96652e-12
-3.01803e-12
-4.11582e-12
-3.64153e-12
-1.59162e-12
-1.85807e-12
-2.79954e-12
-7.51399e-13
2.27374e-13
8.84626e-13
-8.10019e-13
-1.64313e-12
-6.80345e-13
-1.62359e-12
-1.22213e-12
-8.5798e-13
5.32907e-15
-7.79821e-13
-1.49747e-12
-1.96643e-12
-3.67351e-12
-4.8832e-12
-4.14779e-12
-5.39124e-12
-6.74305e-12
-5.16032e-12
-3.63087e-12
-2.71605e-12
-4.32898e-12
-4.57945e-12
-4.49774e-12
-3.31646e-12
-2.74625e-12
-9.11271e-13
5.32907e-15
3.55271e-15
-1.14753e-12
-7.78044e-13
-5.31131e-13
-8.43769e-13
-7.0699e-13
-6.94556e-13
-9.59233e-14
2.71783e-13
3.42837e-13
8.65086e-13
2.96652e-13
9.00613e-13
-1.03029e-12
-1.39266e-12
-1.39089e-12
-9.23706e-13
-1.78524e-12
-2.28439e-12
-2.16538e-12
-1.8332e-12
-7.0699e-13
8.15348e-13
-3.00204e-13
9.30811e-13
3.69127e-12
4.78551e-12
4.97025e-12
3.65219e-12
1.92912e-12
1.24345e-13
-2.15827e-12
-3.45324e-12
-2.28795e-12
-3.2383e-12
-4.50839e-12
-5.96856e-12
-7.48734e-12
-7.08411e-12
-7.44826e-12
-7.22977e-12
-8.16414e-12
-7.44649e-12
-6.2883e-12
-4.70202e-12
-4.14957e-12
-3.606e-12
-1.83853e-12
-2.65565e-12
-1.96287e-12
-6.35936e-13
-3.83693e-13
-6.59028e-13
-3.90799e-14
6.50147e-13
2.5917e-12
3.38041e-12
3.1779e-12
3.68772e-12
5.75895e-12
7.52287e-12
7.41984e-12
6.72706e-12
7.02371e-12
8.06999e-12
7.70228e-12
7.24398e-12
7.30971e-12
8.42348e-12
6.86917e-12
7.10365e-12
7.30616e-12
7.51399e-12
6.27765e-12
6.89582e-12
7.17648e-12
7.01483e-12
5.139e-12
4.74465e-12
3.35731e-12
4.47642e-12
6.41442e-12
6.80345e-12
7.36478e-12
7.08411e-12
6.59206e-12
5.41789e-12
5.48184e-12
3.52784e-12
3.47988e-12
1.28075e-12
1.4051e-12
3.25784e-12
4.60965e-12
4.82636e-12
3.41949e-12
1.66978e-12
9.00613e-13
-4.26326e-14
5.45342e-13
3.6593e-13
-1.09068e-12
-1.55254e-12
-1.20259e-12
6.27054e-13
2.70362e-12
2.69651e-12
3.52784e-12
2.83151e-12
2.80131e-12
2.70362e-12
3.19744e-12
2.49578e-12
2.15117e-12
2.73914e-12
3.01625e-12
3.26139e-12
2.2915e-12
7.05214e-13
9.11271e-13
2.2311e-12
1.83142e-12
1.98241e-12
2.02149e-12
2.14939e-13
1.79412e-13
4.44089e-13
1.03739e-12
2.76934e-12
2.6823e-12
1.97886e-12
1.803e-12
2.01439e-12
-8.81073e-13
9.92983e-13
1.0747e-12
9.48575e-13
9.69891e-13
7.10543e-15
-3.19744e-14
1.56675e-12
3.69482e-12
6.90292e-12
8.75744e-12
9.12337e-12
1.04006e-11
9.80016e-12
8.70948e-12
7.93854e-12
7.72538e-12
7.42872e-12
7.56195e-12
7.61169e-12
8.26361e-12
9.301e-12
9.99734e-12
9.79306e-12
9.12159e-12
8.91553e-12
9.14113e-12
9.89608e-12
1.09512e-11
1.21005e-11
1.37934e-11
1.50404e-11
1.67386e-11
1.72964e-11
1.91278e-11
1.74065e-11
1.94067e-11
1.87335e-11
1.87388e-11
2.07088e-11
2.0389e-11
2.02345e-11
1.96394e-11
1.8872e-11
1.69891e-11
1.54685e-11
1.57083e-11
1.61151e-11
1.50031e-11
1.3781e-11
1.46176e-11
1.48095e-11
1.53051e-11
1.51417e-11
1.56017e-11
1.45768e-11
1.33316e-11
1.35127e-11
1.32623e-11
1.2184e-11
1.31468e-11
1.1509e-11
1.13722e-11
1.1994e-11
1.24771e-11
1.35518e-11
1.48255e-11
1.64651e-11
1.53388e-11
1.76961e-11
1.71205e-11
1.71507e-11
1.57474e-11
1.38858e-11
1.48148e-11
1.54756e-11
1.64988e-11
1.74065e-11
1.74634e-11
1.67777e-11
1.50724e-11
1.51754e-11
1.74101e-11
1.78932e-11
1.99307e-11
1.97318e-11
2.03944e-11
)
;

boundaryField
{
    sides
    {
        type            calculated;
        value           nonuniform List<scalar> 2(1.95508e-11 4.55138e-11);
    }
    empty
    {
        type            empty;
        value           nonuniform 0();
    }
}


// ************************************************************************* //
