/*--------------------------------*- C++ -*----------------------------------*\
| =========                 |                                                 |
| \\      /  F ield         | OpenFOAM: The Open Source CFD Toolbox           |
|  \\    /   O peration     | Version:  4.1                                   |
|   \\  /    A nd           | Web:      www.OpenFOAM.org                      |
|    \\/     M anipulation  |                                                 |
\*---------------------------------------------------------------------------*/
FoamFile
{
    version     2.0;
    format      ascii;
    class       volScalarField;
    location    "0.0036";
    object      T;
}
// * * * * * * * * * * * * * * * * * * * * * * * * * * * * * * * * * * * * * //

dimensions      [0 0 0 1 0 0 0];

internalField   nonuniform List<scalar> 
1000
(
400
400
400
400
400
400
400
400
400
400
400
400
400
400
400
400
400
400
400
400
400
400
400
400
400
400
400
400
400
400
400
400
400
400
400
400
400
400
400
400
400
400
400
400
400
400
400
400
400
400
400
400
400
400
400
400
400
400
400
400
400
400
400
400
400
400
400
400
400
400
400
400
400
400
400
400
400
400
400
400
400
400
400
400
400
400
400
400
400
400
400
400
400
400
400
400
400
400
400
400
400
400
400
400
400
400
400
400
400
400
400
400
400
400
400
400
400
400
400
400
400
400
400
400
400
400
400
400
400
400
400
400
400
400
400
400
400
400
400
400
400
400
400
400
400
400
400
400
400
400
400
400
400
400
400
400
400
400
400
400
400
400
400
400
400
400
400
400
400
400
400
400
400
400
400
400
400
400
400
400
400
400
400
400
400
400
400
400
400
400
400
400
400
400
400
400
400
400
400
400
400
400
400
400
400
400
400
400
400
400
400
400
400
400
400
400
400
400
400
400
400
400
400
400
400
400
400
400
400
400
400
400
400
400
400
400
400
400
400
400
400
400
400
400
400
400
400
400
400
400
400
400
400
400
400
400
400
400
400
400
400
400
400
400
400
400
400
400
400
400
400
400
400
400
400
400
400
400
400
400
400
400
400
400
400
400
400
400
400
400
400
400
400
400
400
400
400
400
400
400
400
400
400
400
400
400
400
400
400
400
400
400
400
400
400
400
400
400
400
400
400
400
400
400
400
400
400
400
400
400
400
400
400
399.999
399.999
399.998
399.996
399.994
399.99
399.983
399.972
399.955
399.928
399.889
399.83
399.746
399.627
399.465
399.249
398.97
398.625
398.215
397.75
397.235
396.675
396.076
395.441
394.777
394.086
393.373
392.642
391.895
391.134
390.363
389.582
388.793
387.997
387.195
386.389
385.577
384.762
383.944
383.123
382.3
381.474
380.647
379.818
378.988
378.157
377.325
376.492
375.658
374.824
373.99
373.156
372.322
371.488
370.654
369.82
368.986
368.154
367.321
366.49
365.659
364.829
364
363.172
362.345
361.519
360.695
359.871
359.05
358.23
357.412
356.595
355.78
354.968
354.157
353.349
352.543
351.74
350.939
350.141
349.346
348.555
347.766
346.981
346.2
345.423
344.651
343.882
343.119
342.361
341.608
340.861
340.121
339.387
338.66
337.942
337.23
336.531
335.832
335.165
334.467
333.857
333.131
332.622
331.839
331.441
330.649
330.259
329.625
329.083
328.712
328.062
327.759
327.31
326.832
326.623
326.203
325.893
325.742
325.425
325.237
325.15
324.96
324.851
324.821
324.748
324.689
324.686
324.683
324.669
324.668
324.674
324.68
324.682
324.685
324.692
324.709
324.718
324.726
324.741
324.747
324.75
324.756
324.761
324.762
324.764
324.768
324.771
324.772
324.775
324.779
324.781
324.783
324.786
324.79
324.792
324.794
324.798
324.801
324.803
324.806
324.811
324.813
324.815
324.819
324.824
324.827
324.83
324.835
324.838
324.842
324.847
324.85
324.854
324.859
324.864
324.867
324.871
324.878
324.884
324.887
324.892
324.899
324.906
324.91
324.914
324.921
324.931
324.937
324.941
324.947
324.957
324.968
324.975
324.979
324.985
324.997
325.012
325.024
325.03
325.035
325.044
325.061
325.081
325.098
325.107
325.112
325.117
325.136
325.168
325.197
325.216
325.226
325.232
325.246
325.283
325.333
325.375
325.402
325.417
325.427
325.447
325.509
325.628
325.741
325.824
325.87
325.882
325.87
325.771
325.594
325.486
325.459
325.703
328.135
339.406
363.24
388.026
411.167
431.292
447.769
460.489
469.758
476.156
480.42
483.176
484.845
485.773
486.281
486.587
486.772
486.84
486.823
486.815
486.85
486.868
486.832
486.787
486.798
486.839
486.829
486.767
486.76
486.816
486.829
486.775
486.742
486.775
486.816
486.798
486.738
486.735
486.793
486.805
486.75
486.72
486.753
486.792
486.772
486.713
486.714
486.772
486.781
486.721
486.696
486.738
486.775
486.746
486.69
486.696
486.755
486.76
486.695
486.672
486.718
486.753
486.719
486.667
486.677
486.736
486.737
486.668
486.648
486.697
486.73
486.688
486.637
486.651
486.71
486.705
486.63
486.614
486.667
486.696
486.641
486.595
486.609
486.664
486.651
486.572
486.558
486.602
486.628
486.564
486.521
486.528
486.572
486.549
486.466
486.451
486.475
486.497
486.416
486.377
486.373
486.397
486.356
486.254
486.235
486.232
486.245
486.116
486.044
486.015
486.039
485.973
485.76
485.695
485.715
485.749
485.371
485.2
485.199
485.248
484.897
484.459
484.248
483.774
483.006
481.349
475.35
446.18
413.883
403.69
400.898
400.213
400.05
400.012
400.003
400.001
400
400
400
400
400
400
400
400
400
400
400
400
400
400
400
400
400
400
400
400
400
400
400
400
400
400
400
400
400
400
400
400
400
400
400
400
400
400
400
400
400
400
400
400
400
400
400
400
400
400
400
400
400
400
400
400
400
400
400
400
400
400
400
400
400
400
400
400
400
400
400
400
400
400
400
400
400
400
400
400
400
400
400
400
400
400
400
400
400
400
400
400
400
400
400
400
400
400
400
400
400
400
400
400
400
400
400
400
400
400
400
400
400
400
400
400
400
400
400
400
400
400
400
400
400
400
400
400
400
400
400
400
400
400
400
400
400
400
400
400
400
400
400
400
400
400
400
400
400
400
400
400
400
400
400
400
400
400
400
400
400
400
400
400
400
400
400
400
400
400
400
400
400
400
400
400
400
400
400
400
400
400
400
400
400
400
400
400
400
400
400
400
400
400
400
400
400
400
400
400
400
400
400
400
400
400
400
400
400
400
400
400
400
400
400
400
400
400
400
400
400
400
400
400
400
400
400
400
400
400
400
400
400
400
400
400
400
400
400
400
400
400
400
400
400
400
400
400
400
400
400
400
400
400
400
400
400
400
400
400
400
400
400
400
400
400
400
400
400
400
400
400
400
400
400
400
400
400
400
400
400
400
400
400
400
400
400
400
400
400
400
400
400
400
400
400
400
)
;

boundaryField
{
    sides
    {
        type            zeroGradient;
    }
    empty
    {
        type            empty;
    }
}


// ************************************************************************* //
