/*--------------------------------*- C++ -*----------------------------------*\
| =========                 |                                                 |
| \\      /  F ield         | OpenFOAM: The Open Source CFD Toolbox           |
|  \\    /   O peration     | Version:  4.1                                   |
|   \\  /    A nd           | Web:      www.OpenFOAM.org                      |
|    \\/     M anipulation  |                                                 |
\*---------------------------------------------------------------------------*/
FoamFile
{
    version     2.0;
    format      ascii;
    class       volVectorField;
    location    "0.0036";
    object      U;
}
// * * * * * * * * * * * * * * * * * * * * * * * * * * * * * * * * * * * * * //

dimensions      [0 1 -1 0 0 0 0];

internalField   nonuniform List<vector> 
1000
(
(-1.31026e-11 0 0)
(-1.31101e-11 0 0)
(-1.51777e-11 0 0)
(-1.65295e-11 0 0)
(-1.75731e-11 0 0)
(-2.03025e-11 0 0)
(-2.19362e-11 0 0)
(-2.08041e-11 0 0)
(-2.00649e-11 0 0)
(-2.25485e-11 0 0)
(-1.88917e-11 0 0)
(-2.03624e-11 0 0)
(-2.03345e-11 0 0)
(-2.02857e-11 0 0)
(-1.74431e-11 0 0)
(-1.9746e-11 0 0)
(-1.71699e-11 0 0)
(-1.72943e-11 0 0)
(-1.38776e-11 0 0)
(-1.58837e-11 0 0)
(-1.20336e-11 0 0)
(-1.42576e-11 0 0)
(-1.27466e-11 0 0)
(-1.40092e-11 0 0)
(-1.06126e-11 0 0)
(-1.41349e-11 0 0)
(-1.12548e-11 0 0)
(-1.29546e-11 0 0)
(-1.11771e-11 0 0)
(-9.51651e-12 0 0)
(-1.13267e-11 0 0)
(-1.04445e-11 0 0)
(-1.16941e-11 0 0)
(-1.08827e-11 0 0)
(-1.28994e-11 0 0)
(-8.5858e-12 0 0)
(-9.6299e-12 0 0)
(-7.30618e-12 0 0)
(-1.13211e-11 0 0)
(-5.18262e-12 0 0)
(-1.06491e-11 0 0)
(-8.59926e-12 0 0)
(-1.14796e-11 0 0)
(-6.40581e-12 0 0)
(-9.73946e-12 0 0)
(-7.97231e-12 0 0)
(-7.33437e-12 0 0)
(-8.33856e-12 0 0)
(-7.14732e-12 0 0)
(-3.42989e-12 0 0)
(-7.78772e-12 0 0)
(-4.77476e-12 0 0)
(-5.69207e-12 0 0)
(-4.32314e-12 0 0)
(-4.4203e-12 0 0)
(-5.08195e-12 0 0)
(-3.98735e-12 0 0)
(-7.74569e-12 0 0)
(-1.7482e-12 0 0)
(-4.84221e-12 0 0)
(-4.76692e-12 0 0)
(-5.17514e-12 0 0)
(-5.09041e-12 0 0)
(-8.24956e-12 0 0)
(-7.11284e-12 0 0)
(-8.70519e-12 0 0)
(-4.71857e-12 0 0)
(-7.4763e-12 0 0)
(-5.13625e-12 0 0)
(-7.88355e-12 0 0)
(-1.32861e-12 0 0)
(-5.27242e-12 0 0)
(-3.06633e-12 0 0)
(-1.0441e-12 0 0)
(3.39682e-12 0 0)
(3.98196e-13 0 0)
(5.09631e-12 0 0)
(3.7221e-12 0 0)
(3.44985e-12 0 0)
(2.53912e-12 0 0)
(4.57005e-12 0 0)
(1.08758e-12 0 0)
(2.43723e-12 0 0)
(4.0254e-13 0 0)
(6.73658e-13 0 0)
(1.79419e-12 0 0)
(-2.86866e-12 0 0)
(-7.53241e-13 0 0)
(-2.03052e-12 0 0)
(3.18713e-12 0 0)
(6.19785e-13 0 0)
(2.98872e-12 0 0)
(-1.25148e-12 0 0)
(4.72392e-12 0 0)
(1.89263e-12 0 0)
(5.22925e-12 0 0)
(4.1007e-12 0 0)
(4.89536e-12 0 0)
(5.56662e-12 0 0)
(9.76079e-12 0 0)
(8.80901e-12 0 0)
(1.15613e-11 0 0)
(1.13417e-11 0 0)
(7.91303e-12 0 0)
(1.06188e-11 0 0)
(8.10329e-12 0 0)
(8.19735e-12 0 0)
(9.75923e-12 0 0)
(6.9304e-12 0 0)
(6.45839e-12 0 0)
(1.01945e-11 0 0)
(1.01694e-11 0 0)
(1.05463e-11 0 0)
(1.03849e-11 0 0)
(1.01682e-11 0 0)
(9.41187e-12 0 0)
(8.30364e-12 0 0)
(8.47846e-12 0 0)
(6.89848e-12 0 0)
(6.25556e-12 0 0)
(7.05376e-12 0 0)
(8.68748e-12 0 0)
(7.90531e-12 0 0)
(8.60591e-12 0 0)
(5.76955e-12 0 0)
(7.99464e-12 0 0)
(6.85845e-12 0 0)
(1.02399e-11 0 0)
(8.10392e-12 0 0)
(5.50105e-12 0 0)
(5.01933e-12 0 0)
(8.74584e-12 0 0)
(7.62128e-12 0 0)
(6.90984e-12 0 0)
(9.70388e-12 0 0)
(8.84452e-12 0 0)
(6.15766e-12 0 0)
(5.20023e-12 0 0)
(5.40342e-12 0 0)
(5.0719e-12 0 0)
(2.1074e-12 0 0)
(1.63863e-12 0 0)
(7.73891e-14 0 0)
(1.44855e-12 0 0)
(4.55628e-12 0 0)
(6.33969e-12 0 0)
(6.20755e-12 0 0)
(5.5211e-12 0 0)
(6.8305e-12 0 0)
(5.64153e-12 0 0)
(7.44708e-12 0 0)
(5.27076e-12 0 0)
(8.90349e-12 0 0)
(3.58724e-12 0 0)
(6.9438e-12 0 0)
(4.99289e-12 0 0)
(4.951e-12 0 0)
(7.00531e-12 0 0)
(7.53888e-12 0 0)
(7.97294e-12 0 0)
(7.5631e-12 0 0)
(5.7511e-12 0 0)
(6.11093e-12 0 0)
(6.78679e-12 0 0)
(6.42676e-12 0 0)
(8.975e-12 0 0)
(6.97882e-12 0 0)
(4.15834e-12 0 0)
(7.66621e-12 0 0)
(8.19891e-12 0 0)
(1.04124e-11 0 0)
(1.07191e-11 0 0)
(9.80075e-12 0 0)
(1.07976e-11 0 0)
(7.39309e-12 0 0)
(1.01514e-11 0 0)
(8.83533e-12 0 0)
(1.13358e-11 0 0)
(6.63926e-12 0 0)
(8.22126e-12 0 0)
(5.69842e-12 0 0)
(9.04364e-12 0 0)
(1.02627e-11 0 0)
(1.15443e-11 0 0)
(1.02611e-11 0 0)
(1.21434e-11 0 0)
(1.00235e-11 0 0)
(1.00086e-11 0 0)
(7.4207e-12 0 0)
(6.36481e-12 0 0)
(7.76892e-12 0 0)
(4.58208e-12 0 0)
(5.92534e-12 0 0)
(1.77325e-12 0 0)
(5.58644e-12 0 0)
(2.63447e-12 0 0)
(4.38283e-12 0 0)
(-5.16436e-13 0 0)
(1.60953e-12 0 0)
(8.0287e-13 0 0)
(4.75133e-12 0 0)
(-1.93261e-13 0 0)
(1.60348e-12 0 0)
(1.79257e-12 0 0)
(1.93071e-12 0 0)
(3.10916e-12 0 0)
(4.4702e-12 0 0)
(3.82318e-12 0 0)
(5.16746e-12 0 0)
(5.93324e-12 0 0)
(8.81285e-12 0 0)
(8.68375e-12 0 0)
(8.75998e-12 0 0)
(9.25322e-12 0 0)
(8.17965e-12 0 0)
(1.20153e-11 0 0)
(8.00976e-12 0 0)
(1.33315e-11 0 0)
(8.96222e-12 0 0)
(1.17899e-11 0 0)
(9.81358e-12 0 0)
(1.4493e-11 0 0)
(8.6958e-12 0 0)
(1.28862e-11 0 0)
(6.65524e-12 0 0)
(1.24922e-11 0 0)
(6.10583e-12 0 0)
(9.33659e-12 0 0)
(8.18645e-12 0 0)
(9.21802e-12 0 0)
(7.14148e-12 0 0)
(4.80351e-12 0 0)
(7.02934e-12 0 0)
(4.83762e-12 0 0)
(7.94269e-12 0 0)
(5.30671e-12 0 0)
(7.46141e-12 0 0)
(3.03014e-12 0 0)
(4.28534e-12 0 0)
(1.43327e-12 0 0)
(5.86529e-12 0 0)
(1.39566e-12 0 0)
(6.17873e-12 0 0)
(5.49877e-13 0 0)
(4.48368e-12 0 0)
(3.2079e-12 0 0)
(6.91569e-12 0 0)
(4.64661e-12 0 0)
(5.06053e-12 0 0)
(4.79796e-12 0 0)
(5.02587e-12 0 0)
(2.66113e-12 0 0)
(3.60908e-12 0 0)
(1.27872e-12 0 0)
(3.79288e-12 0 0)
(2.19865e-12 0 0)
(4.29359e-12 0 0)
(1.83809e-12 0 0)
(5.06002e-13 0 0)
(1.91128e-13 0 0)
(3.06494e-12 0 0)
(1.85486e-13 0 0)
(8.92973e-14 0 0)
(2.25267e-12 0 0)
(3.73182e-12 0 0)
(4.11359e-12 0 0)
(3.91201e-12 0 0)
(6.11706e-12 0 0)
(4.30037e-12 0 0)
(4.24121e-12 0 0)
(6.47003e-12 0 0)
(8.22723e-12 0 0)
(5.76079e-12 0 0)
(5.05912e-12 0 0)
(5.93274e-12 0 0)
(9.89354e-12 0 0)
(6.98858e-12 0 0)
(8.85409e-12 0 0)
(4.91449e-12 0 0)
(8.32306e-12 0 0)
(4.47472e-12 0 0)
(6.82047e-12 0 0)
(2.80078e-12 0 0)
(3.00505e-12 0 0)
(2.90268e-12 0 0)
(5.43634e-12 0 0)
(5.23773e-12 0 0)
(6.54343e-12 0 0)
(5.89033e-12 0 0)
(9.11621e-12 0 0)
(6.96175e-12 0 0)
(7.2648e-12 0 0)
(1.0558e-11 0 0)
(1.01204e-11 0 0)
(8.70983e-12 0 0)
(7.02831e-12 0 0)
(5.76849e-12 0 0)
(7.31658e-12 0 0)
(7.3931e-12 0 0)
(4.93104e-12 0 0)
(6.0468e-12 0 0)
(4.05666e-12 0 0)
(7.21039e-12 0 0)
(6.16779e-12 0 0)
(8.11026e-12 0 0)
(5.50067e-12 0 0)
(5.51938e-12 0 0)
(1.17371e-11 0 0)
(2.24781e-11 0 0)
(5.15299e-11 0 0)
(1.20182e-10 0 0)
(2.77397e-10 0 0)
(6.27767e-10 0 0)
(1.41029e-09 0 0)
(3.12758e-09 0 0)
(6.86962e-09 0 0)
(1.4936e-08 0 0)
(3.21677e-08 0 0)
(6.86084e-08 0 0)
(1.4492e-07 0 0)
(3.03118e-07 0 0)
(6.27715e-07 0 0)
(1.2868e-06 0 0)
(2.61082e-06 0 0)
(5.24185e-06 0 0)
(1.04123e-05 0 0)
(2.04585e-05 0 0)
(3.97529e-05 0 0)
(7.63714e-05 0 0)
(0.000145028 0 0)
(0.000272158 0 0)
(0.00050456 0 0)
(0.000923847 0 0)
(0.0016701 0 0)
(0.00297984 0 0)
(0.00524551 0 0)
(0.00910658 0 0)
(0.015585 0 0)
(0.0262808 0 0)
(0.0436444 0 0)
(0.07134 0 0)
(0.114707 0 0)
(0.181305 0 0)
(0.281505 0 0)
(0.429022 0 0)
(0.641252 0 0)
(0.939166 0 0)
(1.34645 0 0)
(1.88745 0 0)
(2.58314 0 0)
(3.44372 0 0)
(4.46263 0 0)
(5.62298 0 0)
(6.90911 0 0)
(8.30863 0 0)
(9.80986 0 0)
(11.401 0 0)
(13.0703 0 0)
(14.8071 0 0)
(16.6015 0 0)
(18.445 0 0)
(20.3304 0 0)
(22.2516 0 0)
(24.2033 0 0)
(26.1815 0 0)
(28.1824 0 0)
(30.2032 0 0)
(32.2415 0 0)
(34.295 0 0)
(36.3622 0 0)
(38.4414 0 0)
(40.5315 0 0)
(42.6312 0 0)
(44.7396 0 0)
(46.8559 0 0)
(48.9794 0 0)
(51.1092 0 0)
(53.245 0 0)
(55.386 0 0)
(57.5319 0 0)
(59.6821 0 0)
(61.8363 0 0)
(63.9942 0 0)
(66.1552 0 0)
(68.3192 0 0)
(70.4857 0 0)
(72.6546 0 0)
(74.8255 0 0)
(76.9981 0 0)
(79.1723 0 0)
(81.3477 0 0)
(83.5241 0 0)
(85.7012 0 0)
(87.8789 0 0)
(90.0569 0 0)
(92.2349 0 0)
(94.4127 0 0)
(96.5901 0 0)
(98.7669 0 0)
(100.943 0 0)
(103.117 0 0)
(105.291 0 0)
(107.462 0 0)
(109.632 0 0)
(111.799 0 0)
(113.964 0 0)
(116.126 0 0)
(118.285 0 0)
(120.44 0 0)
(122.591 0 0)
(124.738 0 0)
(126.881 0 0)
(129.018 0 0)
(131.149 0 0)
(133.275 0 0)
(135.394 0 0)
(137.506 0 0)
(139.61 0 0)
(141.706 0 0)
(143.792 0 0)
(145.869 0 0)
(147.935 0 0)
(149.989 0 0)
(152.031 0 0)
(154.059 0 0)
(156.072 0 0)
(158.07 0 0)
(160.05 0 0)
(162.011 0 0)
(163.952 0 0)
(165.871 0 0)
(167.765 0 0)
(169.634 0 0)
(171.473 0 0)
(173.283 0 0)
(175.057 0 0)
(176.797 0 0)
(178.495 0 0)
(180.152 0 0)
(181.761 0 0)
(183.32 0 0)
(184.825 0 0)
(186.269 0 0)
(187.651 0 0)
(188.964 0 0)
(190.205 0 0)
(191.369 0 0)
(192.45 0 0)
(193.446 0 0)
(194.354 0 0)
(195.17 0 0)
(195.893 0 0)
(196.524 0 0)
(197.063 0 0)
(197.513 0 0)
(197.881 0 0)
(198.171 0 0)
(198.389 0 0)
(198.549 0 0)
(198.66 0 0)
(198.726 0 0)
(198.761 0 0)
(198.775 0 0)
(198.779 0 0)
(198.779 0 0)
(198.777 0 0)
(198.772 0 0)
(198.76 0 0)
(198.738 0 0)
(198.709 0 0)
(198.678 0 0)
(198.652 0 0)
(198.633 0 0)
(198.618 0 0)
(198.607 0 0)
(198.599 0 0)
(198.594 0 0)
(198.591 0 0)
(198.589 0 0)
(198.588 0 0)
(198.587 0 0)
(198.586 0 0)
(198.585 0 0)
(198.584 0 0)
(198.583 0 0)
(198.582 0 0)
(198.581 0 0)
(198.58 0 0)
(198.579 0 0)
(198.578 0 0)
(198.577 0 0)
(198.577 0 0)
(198.576 0 0)
(198.576 0 0)
(198.575 0 0)
(198.574 0 0)
(198.573 0 0)
(198.573 0 0)
(198.572 0 0)
(198.571 0 0)
(198.571 0 0)
(198.57 0 0)
(198.569 0 0)
(198.569 0 0)
(198.568 0 0)
(198.567 0 0)
(198.566 0 0)
(198.565 0 0)
(198.565 0 0)
(198.564 0 0)
(198.564 0 0)
(198.563 0 0)
(198.563 0 0)
(198.562 0 0)
(198.562 0 0)
(198.561 0 0)
(198.561 0 0)
(198.56 0 0)
(198.559 0 0)
(198.559 0 0)
(198.558 0 0)
(198.557 0 0)
(198.557 0 0)
(198.556 0 0)
(198.555 0 0)
(198.554 0 0)
(198.554 0 0)
(198.553 0 0)
(198.552 0 0)
(198.551 0 0)
(198.551 0 0)
(198.55 0 0)
(198.549 0 0)
(198.549 0 0)
(198.549 0 0)
(198.549 0 0)
(198.548 0 0)
(198.548 0 0)
(198.548 0 0)
(198.547 0 0)
(198.545 0 0)
(198.544 0 0)
(198.544 0 0)
(198.544 0 0)
(198.543 0 0)
(198.542 0 0)
(198.542 0 0)
(198.542 0 0)
(198.542 0 0)
(198.541 0 0)
(198.54 0 0)
(198.539 0 0)
(198.539 0 0)
(198.54 0 0)
(198.541 0 0)
(198.542 0 0)
(198.54 0 0)
(198.537 0 0)
(198.535 0 0)
(198.534 0 0)
(198.535 0 0)
(198.534 0 0)
(198.535 0 0)
(198.543 0 0)
(198.56 0 0)
(198.591 0 0)
(198.67 0 0)
(198.842 0 0)
(198.911 0 0)
(198.775 0 0)
(198.622 0 0)
(198.518 0 0)
(198.461 0 0)
(198.461 0 0)
(198.495 0 0)
(198.51 0 0)
(198.496 0 0)
(198.495 0 0)
(198.526 0 0)
(198.549 0 0)
(198.529 0 0)
(198.501 0 0)
(198.514 0 0)
(198.547 0 0)
(198.549 0 0)
(198.517 0 0)
(198.501 0 0)
(198.524 0 0)
(198.545 0 0)
(198.524 0 0)
(198.494 0 0)
(198.505 0 0)
(198.537 0 0)
(198.532 0 0)
(198.496 0 0)
(198.491 0 0)
(198.527 0 0)
(198.544 0 0)
(198.512 0 0)
(198.483 0 0)
(198.507 0 0)
(198.543 0 0)
(198.53 0 0)
(198.49 0 0)
(198.488 0 0)
(198.525 0 0)
(198.54 0 0)
(198.507 0 0)
(198.479 0 0)
(198.502 0 0)
(198.535 0 0)
(198.52 0 0)
(198.481 0 0)
(198.482 0 0)
(198.519 0 0)
(198.53 0 0)
(198.493 0 0)
(198.468 0 0)
(198.495 0 0)
(198.527 0 0)
(198.506 0 0)
(198.465 0 0)
(198.469 0 0)
(198.507 0 0)
(198.513 0 0)
(198.472 0 0)
(198.448 0 0)
(198.477 0 0)
(198.506 0 0)
(198.48 0 0)
(198.437 0 0)
(198.442 0 0)
(198.48 0 0)
(198.479 0 0)
(198.433 0 0)
(198.408 0 0)
(198.437 0 0)
(198.461 0 0)
(198.428 0 0)
(198.381 0 0)
(198.386 0 0)
(198.419 0 0)
(198.408 0 0)
(198.354 0 0)
(198.327 0 0)
(198.353 0 0)
(198.367 0 0)
(198.321 0 0)
(198.267 0 0)
(198.266 0 0)
(198.289 0 0)
(198.265 0 0)
(198.199 0 0)
(198.162 0 0)
(198.173 0 0)
(198.17 0 0)
(198.109 0 0)
(198.043 0 0)
(198.024 0 0)
(198.026 0 0)
(197.978 0 0)
(197.894 0 0)
(197.838 0 0)
(197.821 0 0)
(197.786 0 0)
(197.694 0 0)
(197.599 0 0)
(197.543 0 0)
(197.5 0 0)
(197.407 0 0)
(197.271 0 0)
(197.164 0 0)
(197.094 0 0)
(197 0 0)
(196.824 0 0)
(196.64 0 0)
(196.511 0 0)
(196.401 0 0)
(196.193 0 0)
(195.902 0 0)
(195.665 0 0)
(195.501 0 0)
(195.274 0 0)
(194.854 0 0)
(194.429 0 0)
(194.14 0 0)
(193.811 0 0)
(193.149 0 0)
(192.347 0 0)
(191.535 0 0)
(190.22 0 0)
(187.609 0 0)
(181.189 0 0)
(161.144 0 0)
(104.573 0 0)
(37.1246 0 0)
(9.8134 0 0)
(2.40311 0 0)
(0.57257 0 0)
(0.135422 0 0)
(0.0319852 0 0)
(0.00755222 0 0)
(0.00178298 0 0)
(0.0004209 0 0)
(9.93535e-05 0 0)
(2.34514e-05 0 0)
(5.53522e-06 0 0)
(1.30642e-06 0 0)
(3.08332e-07 0 0)
(7.27682e-08 0 0)
(1.7174e-08 0 0)
(4.05187e-09 0 0)
(9.53282e-10 0 0)
(2.20726e-10 0 0)
(4.79916e-11 0 0)
(6.11926e-12 0 0)
(-8.79788e-13 0 0)
(-5.18013e-12 0 0)
(-5.92462e-12 0 0)
(-4.24894e-12 0 0)
(-3.97803e-12 0 0)
(-6.90489e-12 0 0)
(-7.71321e-12 0 0)
(-7.20413e-12 0 0)
(-8.00753e-12 0 0)
(-3.34302e-12 0 0)
(-7.82028e-12 0 0)
(-5.9102e-12 0 0)
(-9.71819e-12 0 0)
(-6.53543e-12 0 0)
(-9.9604e-12 0 0)
(-5.17153e-12 0 0)
(-6.45984e-12 0 0)
(-2.0441e-12 0 0)
(-4.74772e-12 0 0)
(-9.42474e-13 0 0)
(-1.83925e-12 0 0)
(-2.25215e-12 0 0)
(-3.54763e-12 0 0)
(-8.80408e-14 0 0)
(-4.31073e-12 0 0)
(-2.60311e-12 0 0)
(-4.16057e-12 0 0)
(-2.94442e-12 0 0)
(-4.17909e-12 0 0)
(-2.43389e-12 0 0)
(-4.3651e-12 0 0)
(-5.37085e-12 0 0)
(-2.5181e-12 0 0)
(-1.45664e-12 0 0)
(-3.11547e-12 0 0)
(-2.7532e-12 0 0)
(8.3289e-13 0 0)
(-2.42719e-13 0 0)
(2.13553e-12 0 0)
(-4.34748e-12 0 0)
(1.06795e-12 0 0)
(-2.74355e-12 0 0)
(-7.04762e-13 0 0)
(-2.4426e-12 0 0)
(8.30971e-13 0 0)
(-8.52304e-13 0 0)
(-1.22003e-12 0 0)
(-2.06265e-12 0 0)
(-2.17062e-12 0 0)
(-6.26463e-12 0 0)
(-4.69569e-12 0 0)
(-5.05478e-12 0 0)
(-7.81765e-12 0 0)
(-6.8224e-12 0 0)
(-5.58983e-12 0 0)
(-2.37117e-12 0 0)
(-4.53106e-12 0 0)
(-4.55402e-12 0 0)
(-6.13423e-12 0 0)
(-4.20675e-12 0 0)
(-4.10744e-12 0 0)
(-1.44037e-12 0 0)
(-1.0553e-12 0 0)
(1.12719e-12 0 0)
(-1.18385e-12 0 0)
(-1.0029e-12 0 0)
(-1.14713e-12 0 0)
(3.22389e-14 0 0)
(-1.61311e-12 0 0)
(-2.47107e-13 0 0)
(-1.6586e-12 0 0)
(1.56358e-12 0 0)
(-1.04544e-12 0 0)
(1.93302e-12 0 0)
(-8.73931e-14 0 0)
(8.83585e-13 0 0)
(8.08679e-13 0 0)
(-2.75404e-12 0 0)
(-7.46504e-13 0 0)
(-2.32979e-12 0 0)
(2.68923e-14 0 0)
(-3.80129e-12 0 0)
(-1.79735e-12 0 0)
(-2.87997e-12 0 0)
(-1.69982e-12 0 0)
(3.44967e-13 0 0)
(1.15272e-12 0 0)
(-1.70708e-12 0 0)
(4.17906e-12 0 0)
(3.63035e-12 0 0)
(7.92805e-12 0 0)
(2.94444e-12 0 0)
(5.65625e-12 0 0)
(-6.7208e-13 0 0)
(7.91209e-13 0 0)
(-5.14644e-12 0 0)
(-2.91279e-12 0 0)
(-2.77355e-12 0 0)
(-4.54336e-12 0 0)
(-5.60173e-12 0 0)
(-8.32474e-12 0 0)
(-8.4618e-12 0 0)
(-8.47019e-12 0 0)
(-7.83832e-12 0 0)
(-9.8354e-12 0 0)
(-8.36212e-12 0 0)
(-8.30915e-12 0 0)
(-6.04638e-12 0 0)
(-5.12314e-12 0 0)
(-4.96533e-12 0 0)
(-2.62895e-12 0 0)
(-2.21328e-12 0 0)
(-3.19918e-12 0 0)
(-1.57238e-12 0 0)
(-2.14775e-14 0 0)
(-9.05126e-13 0 0)
(-3.6335e-13 0 0)
(1.87094e-13 0 0)
(1.5592e-12 0 0)
(4.48687e-12 0 0)
(2.90237e-12 0 0)
(4.46288e-12 0 0)
(4.44979e-12 0 0)
(8.10227e-12 0 0)
(9.15903e-12 0 0)
(8.2533e-12 0 0)
(7.38394e-12 0 0)
(8.84153e-12 0 0)
(9.50963e-12 0 0)
(8.38451e-12 0 0)
(7.70715e-12 0 0)
(1.00648e-11 0 0)
(8.15063e-12 0 0)
(8.68202e-12 0 0)
(7.57208e-12 0 0)
(9.16923e-12 0 0)
(7.56962e-12 0 0)
(6.97852e-12 0 0)
(8.4917e-12 0 0)
(8.96026e-12 0 0)
(6.1032e-12 0 0)
(6.1971e-12 0 0)
(4.6121e-12 0 0)
(3.9743e-12 0 0)
(5.63981e-12 0 0)
(8.21741e-12 0 0)
(8.42986e-12 0 0)
(8.35642e-12 0 0)
(8.16836e-12 0 0)
(6.05595e-12 0 0)
(7.30104e-12 0 0)
(4.52947e-12 0 0)
(4.22487e-12 0 0)
(3.00974e-12 0 0)
(3.6487e-13 0 0)
(2.63127e-12 0 0)
(5.07525e-12 0 0)
(6.02584e-12 0 0)
(4.69255e-12 0 0)
(2.37796e-12 0 0)
(2.09482e-12 0 0)
(4.75676e-14 0 0)
(-2.28279e-13 0 0)
(1.82551e-12 0 0)
(-9.09305e-13 0 0)
(-1.88132e-12 0 0)
(-1.69249e-12 0 0)
(-1.29825e-12 0 0)
(3.01951e-12 0 0)
(2.69477e-12 0 0)
(3.78025e-12 0 0)
(4.25179e-12 0 0)
(2.51333e-12 0 0)
(3.54174e-12 0 0)
(3.0719e-12 0 0)
(3.99262e-12 0 0)
(2.29086e-12 0 0)
(2.00414e-12 0 0)
(4.86681e-12 0 0)
(2.08573e-12 0 0)
(5.02833e-12 0 0)
(6.26517e-13 0 0)
(7.59137e-13 0 0)
(1.68469e-12 0 0)
(2.91408e-12 0 0)
(1.61806e-12 0 0)
(2.81758e-12 0 0)
(2.30005e-12 0 0)
(-2.05035e-12 0 0)
(2.69924e-12 0 0)
(-1.93696e-12 0 0)
(4.1691e-12 0 0)
(2.66522e-12 0 0)
(3.32738e-12 0 0)
(5.69163e-13 0 0)
(4.44992e-12 0 0)
(-7.85737e-13 0 0)
(-7.01377e-13 0 0)
(2.50562e-12 0 0)
(5.09448e-13 0 0)
(1.519e-12 0 0)
(3.55956e-13 0 0)
(-2.81388e-13 0 0)
(2.19141e-13 0 0)
(3.19089e-12 0 0)
(5.65694e-12 0 0)
(9.91738e-12 0 0)
(9.92646e-12 0 0)
(1.15247e-11 0 0)
(1.17686e-11 0 0)
(1.08148e-11 0 0)
(8.6358e-12 0 0)
(1.00192e-11 0 0)
(8.36588e-12 0 0)
(8.39035e-12 0 0)
(8.6786e-12 0 0)
(9.42718e-12 0 0)
(9.07237e-12 0 0)
(1.16313e-11 0 0)
(1.25006e-11 0 0)
(1.02201e-11 0 0)
(9.80589e-12 0 0)
(1.1224e-11 0 0)
(1.02775e-11 0 0)
(1.21879e-11 0 0)
(1.32833e-11 0 0)
(1.46112e-11 0 0)
(1.6489e-11 0 0)
(1.85062e-11 0 0)
(1.90919e-11 0 0)
(2.22931e-11 0 0)
(2.00345e-11 0 0)
(2.19289e-11 0 0)
(2.0694e-11 0 0)
(2.25205e-11 0 0)
(2.17681e-11 0 0)
(2.46726e-11 0 0)
(2.28981e-11 0 0)
(2.35723e-11 0 0)
(2.16148e-11 0 0)
(2.13283e-11 0 0)
(1.83192e-11 0 0)
(1.7153e-11 0 0)
(1.86696e-11 0 0)
(1.81498e-11 0 0)
(1.655e-11 0 0)
(1.59091e-11 0 0)
(1.71285e-11 0 0)
(1.73278e-11 0 0)
(1.78038e-11 0 0)
(1.72579e-11 0 0)
(1.8574e-11 0 0)
(1.51526e-11 0 0)
(1.62075e-11 0 0)
(1.43218e-11 0 0)
(1.5108e-11 0 0)
(1.41987e-11 0 0)
(1.50007e-11 0 0)
(1.20579e-11 0 0)
(1.45171e-11 0 0)
(1.30644e-11 0 0)
(1.57771e-11 0 0)
(1.58221e-11 0 0)
(1.8765e-11 0 0)
(1.78702e-11 0 0)
(1.8729e-11 0 0)
(2.05145e-11 0 0)
(1.94846e-11 0 0)
(1.90872e-11 0 0)
(1.67226e-11 0 0)
(1.64992e-11 0 0)
(1.68749e-11 0 0)
(1.90838e-11 0 0)
(1.90842e-11 0 0)
(2.08832e-11 0 0)
(1.87388e-11 0 0)
(1.95797e-11 0 0)
(1.59002e-11 0 0)
(1.94463e-11 0 0)
(1.92678e-11 0 0)
(2.35315e-11 0 0)
(2.09345e-11 0 0)
(2.47582e-11 0 0)
(2.24839e-11 0 0)
)
;

boundaryField
{
    sides
    {
        type            zeroGradient;
    }
    empty
    {
        type            empty;
    }
}


// ************************************************************************* //
