/*--------------------------------*- C++ -*----------------------------------*\
| =========                 |                                                 |
| \\      /  F ield         | OpenFOAM: The Open Source CFD Toolbox           |
|  \\    /   O peration     | Version:  4.1                                   |
|   \\  /    A nd           | Web:      www.OpenFOAM.org                      |
|    \\/     M anipulation  |                                                 |
\*---------------------------------------------------------------------------*/
FoamFile
{
    version     2.0;
    format      ascii;
    class       volScalarField;
    location    "0.006";
    object      mag(U);
}
// * * * * * * * * * * * * * * * * * * * * * * * * * * * * * * * * * * * * * //

dimensions      [0 1 -1 0 0 0 0];

internalField   nonuniform List<scalar> 
1000
(
1.41858e-11
1.54794e-11
1.86356e-11
1.94712e-11
2.12772e-11
2.23576e-11
2.4431e-11
2.52629e-11
2.5149e-11
2.66945e-11
2.76587e-11
2.95834e-11
2.88731e-11
3.1622e-11
3.06633e-11
3.2665e-11
3.05376e-11
3.26191e-11
2.79879e-11
3.33567e-11
2.78501e-11
2.96042e-11
2.64709e-11
2.91056e-11
2.56537e-11
2.57025e-11
2.09243e-11
2.04924e-11
2.1558e-11
2.03226e-11
1.98359e-11
1.9071e-11
1.64068e-11
1.40095e-11
1.60313e-11
1.14414e-11
1.51577e-11
1.1282e-11
1.41221e-11
8.31926e-12
1.23058e-11
8.94032e-12
7.80207e-12
4.219e-12
9.31574e-12
3.39155e-12
5.80293e-12
4.88419e-12
6.6263e-12
4.73563e-12
6.49373e-12
1.61026e-12
3.09736e-12
3.37982e-12
3.04018e-12
6.45735e-12
8.35056e-12
1.10797e-11
1.21883e-11
1.27637e-11
8.32496e-12
1.07997e-11
9.60542e-12
1.22699e-11
6.96616e-12
9.69735e-12
6.64871e-12
7.58041e-12
4.6806e-12
8.59129e-12
2.24371e-12
5.44676e-12
2.87707e-12
6.62681e-12
3.43209e-13
6.88759e-12
5.35149e-13
3.15575e-12
2.34768e-13
8.70691e-13
3.21401e-12
8.12687e-13
2.14143e-13
1.40376e-12
1.13093e-12
4.00072e-12
1.81535e-13
2.30031e-12
1.57876e-13
3.56051e-12
8.90044e-13
6.61495e-12
4.00307e-12
6.60716e-12
1.67312e-12
6.18612e-12
5.00864e-12
8.111e-12
4.13108e-12
7.37806e-12
7.85482e-12
8.31804e-12
9.91772e-12
8.45664e-12
9.85495e-12
8.50561e-12
5.55231e-12
6.03395e-12
6.62689e-12
6.74712e-12
6.95749e-12
8.11825e-12
8.59807e-12
6.74028e-12
1.03102e-11
1.15517e-11
1.16878e-11
8.79427e-12
9.13693e-12
1.01761e-11
1.27409e-11
1.35027e-11
1.46903e-11
1.55295e-11
1.33226e-11
1.23197e-11
1.29586e-11
1.55245e-11
1.52116e-11
1.6309e-11
1.28858e-11
1.2489e-11
1.14369e-11
1.08495e-11
1.17496e-11
1.23308e-11
1.24946e-11
1.08335e-11
9.7043e-12
9.89162e-12
1.10433e-11
1.1379e-11
1.19966e-11
1.53676e-11
1.67529e-11
1.81541e-11
1.8066e-11
1.72384e-11
1.99913e-11
1.8052e-11
1.88565e-11
1.88791e-11
2.25654e-11
1.94975e-11
2.09735e-11
1.89233e-11
1.83448e-11
1.96296e-11
1.84652e-11
2.04563e-11
1.9754e-11
2.05969e-11
2.1124e-11
2.14129e-11
2.16985e-11
2.28767e-11
2.46161e-11
2.47456e-11
2.48476e-11
2.41347e-11
2.50131e-11
2.51237e-11
2.35554e-11
2.5384e-11
2.40216e-11
2.36806e-11
2.31438e-11
2.46278e-11
2.11726e-11
2.4414e-11
2.08258e-11
2.32721e-11
2.45976e-11
2.42277e-11
2.47454e-11
2.48591e-11
2.40715e-11
2.57088e-11
2.38882e-11
2.26609e-11
2.29656e-11
1.89046e-11
2.13754e-11
1.66459e-11
1.85188e-11
1.59899e-11
1.88874e-11
1.67451e-11
1.80209e-11
1.28324e-11
1.53107e-11
1.37167e-11
2.19896e-11
3.02843e-11
5.24546e-11
9.45536e-11
1.82569e-10
3.57547e-10
7.05565e-10
1.38668e-09
2.71351e-09
5.27977e-09
1.02036e-08
1.9594e-08
3.73579e-08
7.07374e-08
1.32976e-07
2.48193e-07
4.59852e-07
8.45744e-07
1.5438e-06
2.79665e-06
5.02717e-06
8.96596e-06
1.58636e-05
2.78406e-05
4.84582e-05
8.36378e-05
0.000143125
0.000242793
0.000408213
0.000680125
0.00112268
0.00183568
0.00297247
0.00476555
0.00756266
0.0118764
0.0184509
0.028349
0.0430627
0.0646473
0.0958784
0.140422
0.203004
0.289554
0.407291
0.564691
0.7713
1.03731
1.37281
1.78666
2.2847
2.86729
3.52871
4.2604
5.0546
5.90507
6.80634
7.75328
8.74099
9.76485
10.8206
11.9045
13.013
14.1431
15.2922
16.4581
17.6388
18.8326
20.038
21.2539
22.4792
23.7129
24.9542
26.2024
27.457
28.7173
29.9829
31.2533
32.5283
33.8074
35.0904
36.3769
37.6668
38.9598
40.2557
41.5544
42.8556
44.1592
45.4651
46.7731
48.0832
49.3951
50.7088
52.0242
53.3412
54.6598
55.9797
57.301
58.6236
59.9474
61.2723
62.5983
63.9253
65.2532
66.5821
67.9118
69.2423
70.5735
71.9054
73.238
74.5712
75.9049
77.2391
78.5738
79.9089
81.2444
82.5802
83.9163
85.2527
86.5892
87.926
89.2629
90.5999
91.9369
93.274
94.611
95.948
97.2848
98.6216
99.9581
101.294
102.63
103.966
105.302
106.637
107.971
109.305
110.639
111.972
113.304
114.636
115.967
117.297
118.626
119.955
121.282
122.609
123.934
125.258
126.581
127.903
129.223
130.542
131.86
133.175
134.49
135.802
137.112
138.421
139.727
141.031
142.332
143.632
144.928
146.222
147.513
148.8
150.085
151.365
152.643
153.916
155.185
156.45
157.71
158.965
160.215
161.459
162.698
163.93
165.155
166.374
167.585
168.787
169.981
171.166
172.341
173.506
174.659
175.8
176.929
178.044
179.143
180.227
181.294
182.343
183.373
184.382
185.369
186.331
187.269
188.179
189.06
189.911
190.729
191.512
192.26
192.969
193.638
194.266
194.85
195.391
195.887
196.337
196.742
197.102
197.417
197.69
197.922
198.115
198.274
198.4
198.498
198.571
198.624
198.659
198.68
198.692
198.695
198.696
198.696
198.695
198.692
198.686
198.676
198.662
198.649
198.636
198.624
198.615
198.608
198.602
198.598
198.596
198.594
198.593
198.592
198.591
198.59
198.589
198.588
198.588
198.587
198.586
198.586
198.585
198.585
198.584
198.583
198.583
198.582
198.581
198.581
198.58
198.58
198.579
198.579
198.578
198.577
198.577
198.576
198.576
198.575
198.575
198.574
198.574
198.573
198.573
198.572
198.572
198.571
198.571
198.57
198.57
198.569
198.569
198.568
198.568
198.567
198.567
198.566
198.566
198.565
198.565
198.564
198.564
198.563
198.563
198.562
198.562
198.561
198.561
198.56
198.56
198.559
198.559
198.558
198.558
198.558
198.557
198.557
198.557
198.556
198.556
198.556
198.555
198.555
198.555
198.555
198.554
198.554
198.554
198.554
198.553
198.553
198.553
198.553
198.553
198.553
198.552
198.552
198.552
198.552
198.552
198.552
198.551
198.551
198.551
198.551
198.551
198.55
198.55
198.55
198.55
198.549
198.549
198.549
198.549
198.549
198.548
198.548
198.548
198.548
198.547
198.547
198.547
198.547
198.547
198.546
198.546
198.546
198.546
198.546
198.545
198.545
198.545
198.545
198.545
198.545
198.545
198.544
198.544
198.544
198.544
198.544
198.543
198.543
198.543
198.543
198.543
198.542
198.542
198.542
198.542
198.542
198.541
198.541
198.541
198.541
198.541
198.541
198.541
198.541
198.54
198.54
198.54
198.54
198.54
198.54
198.54
198.54
198.539
198.539
198.538
198.538
198.538
198.536
198.534
198.535
198.541
198.551
198.572
198.633
198.774
198.832
198.727
198.607
198.518
198.473
198.478
198.503
198.511
198.503
198.511
198.537
198.546
198.527
198.517
198.536
198.554
198.538
198.512
198.523
198.554
198.554
198.523
198.512
198.541
198.559
198.536
198.508
198.52
198.549
198.543
198.512
198.507
198.538
198.552
198.525
198.503
198.523
198.551
198.538
198.505
198.51
198.544
198.549
198.517
198.5
198.527
198.553
198.534
198.502
198.51
198.543
198.546
198.513
198.501
198.53
198.55
198.526
198.498
198.515
198.548
198.54
198.504
198.501
198.536
198.55
198.519
198.494
198.517
198.548
198.535
198.5
198.502
198.536
198.545
198.513
198.494
198.52
198.548
198.527
198.493
198.505
198.542
198.54
198.502
198.492
198.526
198.547
198.517
198.486
198.508
198.546
198.534
198.494
198.489
198.527
198.545
198.513
198.484
198.506
198.541
198.528
198.49
198.489
198.526
198.538
198.503
198.479
198.507
198.538
198.519
198.481
198.488
198.526
198.529
198.49
198.473
198.507
198.533
198.503
198.466
198.484
198.524
198.516
198.471
198.462
198.501
198.52
198.484
198.449
198.471
198.509
198.494
198.448
198.444
198.483
198.494
198.453
198.422
198.448
198.48
198.455
198.407
198.408
198.446
198.448
198.399
198.37
198.397
198.422
198.388
198.338
198.34
198.372
198.361
198.306
198.277
198.3
198.312
198.265
198.211
198.21
198.231
198.204
198.14
198.107
198.117
198.11
198.048
197.987
197.973
197.973
197.922
197.843
197.797
197.784
197.745
197.656
197.577
197.536
197.497
197.405
197.288
197.208
197.155
197.065
196.911
196.772
196.682
196.587
196.398
196.173
196.011
195.886
195.67
195.345
195.066
194.866
194.608
194.161
193.679
193.292
192.938
192.366
191.366
189.92
187.561
182.507
167.661
118.362
47.2167
12.7753
3.17791
0.76186
0.180705
0.0427614
0.0101155
0.00239274
0.000565964
0.000133862
3.16601e-05
7.48778e-06
1.77087e-06
4.18806e-07
9.90461e-08
2.34278e-08
5.54413e-09
1.31689e-09
3.15622e-10
8.20421e-11
2.45546e-11
1.2914e-11
9.06128e-12
1.0804e-11
5.8838e-12
1.05662e-11
8.82979e-12
8.61083e-12
9.7357e-12
1.02561e-11
1.27739e-11
1.32015e-11
1.06525e-11
9.13898e-12
9.19439e-12
1.01116e-11
9.95891e-12
1.3109e-11
1.20522e-11
1.10837e-11
1.09656e-11
9.03423e-12
8.60832e-12
6.56576e-12
6.62076e-12
7.25616e-12
1.14073e-11
1.08111e-11
1.32244e-11
1.32975e-11
1.57736e-11
1.60871e-11
1.70846e-11
1.99457e-11
1.79541e-11
1.94737e-11
1.90003e-11
2.10309e-11
2.28016e-11
2.19977e-11
2.30532e-11
2.41861e-11
2.57473e-11
2.47012e-11
2.46385e-11
2.50704e-11
2.63234e-11
2.65126e-11
2.50158e-11
2.48492e-11
2.25696e-11
2.11754e-11
1.97824e-11
1.97802e-11
1.73007e-11
1.61589e-11
1.42461e-11
1.36361e-11
1.47165e-11
1.62847e-11
1.52942e-11
1.86824e-11
1.56391e-11
1.77291e-11
1.86223e-11
2.14217e-11
2.29731e-11
2.49459e-11
2.29413e-11
2.36025e-11
2.40895e-11
2.13953e-11
2.3052e-11
2.33456e-11
2.44356e-11
2.3825e-11
2.4675e-11
2.67422e-11
2.65259e-11
2.37788e-11
2.52948e-11
2.46314e-11
2.70568e-11
2.36175e-11
2.70382e-11
2.65751e-11
2.97455e-11
2.73824e-11
2.78249e-11
2.90085e-11
3.08735e-11
2.97792e-11
2.95265e-11
3.09077e-11
3.29195e-11
3.36185e-11
3.25759e-11
3.32056e-11
3.10987e-11
2.99234e-11
3.0338e-11
2.88132e-11
3.11928e-11
2.94748e-11
3.13911e-11
2.98212e-11
3.13046e-11
2.87576e-11
2.74744e-11
2.75248e-11
2.6168e-11
2.50602e-11
2.50585e-11
2.45018e-11
2.47732e-11
2.50736e-11
2.64025e-11
2.77043e-11
2.5752e-11
2.88172e-11
2.88294e-11
2.8731e-11
2.81304e-11
2.66538e-11
2.46852e-11
2.54242e-11
2.39115e-11
2.52452e-11
2.21037e-11
2.26341e-11
2.18286e-11
2.4526e-11
2.38151e-11
2.38627e-11
2.23778e-11
2.06544e-11
1.87141e-11
1.84819e-11
1.8827e-11
1.75638e-11
1.9997e-11
1.96956e-11
1.99381e-11
1.93514e-11
2.2656e-11
2.2471e-11
2.37321e-11
2.29525e-11
2.57338e-11
2.40908e-11
2.69633e-11
2.48152e-11
2.91783e-11
2.6638e-11
2.70157e-11
2.43261e-11
)
;

boundaryField
{
    sides
    {
        type            calculated;
        value           nonuniform List<scalar> 2(2.43261e-11 1.41858e-11);
    }
    empty
    {
        type            empty;
    }
}


// ************************************************************************* //
