/*--------------------------------*- C++ -*----------------------------------*\
| =========                 |                                                 |
| \\      /  F ield         | OpenFOAM: The Open Source CFD Toolbox           |
|  \\    /   O peration     | Version:  4.1                                   |
|   \\  /    A nd           | Web:      www.OpenFOAM.org                      |
|    \\/     M anipulation  |                                                 |
\*---------------------------------------------------------------------------*/
FoamFile
{
    version     2.0;
    format      ascii;
    class       volScalarField;
    location    "0.006";
    object      p;
}
// * * * * * * * * * * * * * * * * * * * * * * * * * * * * * * * * * * * * * //

dimensions      [1 -1 -2 0 0 0 0];

internalField   nonuniform List<scalar> 
1000
(
100000
100000
100000
100000
100000
100000
100000
100000
100000
100000
100000
100000
100000
100000
100000
100000
100000
100000
100000
100000
100000
100000
100000
100000
100000
100000
100000
100000
100000
100000
100000
100000
100000
100000
100000
100000
100000
100000
100000
100000
100000
100000
100000
100000
100000
100000
100000
100000
100000
100000
100000
100000
100000
100000
100000
100000
100000
100000
100000
100000
100000
100000
100000
100000
100000
100000
100000
100000
100000
100000
100000
100000
100000
100000
100000
100000
100000
100000
100000
100000
100000
100000
100000
100000
100000
100000
100000
100000
100000
100000
100000
100000
100000
100000
100000
100000
100000
100000
100000
100000
100000
100000
100000
100000
100000
100000
100000
100000
100000
100000
100000
100000
100000
100000
100000
100000
100000
100000
100000
100000
100000
100000
100000
100000
100000
100000
100000
100000
100000
100000
100000
100000
100000
100000
100000
100000
100000
100000
100000
100000
100000
100000
100000
100000
100000
100000
100000
100000
100000
100000
100000
100000
100000
100000
100000
100000
100000
100000
100000
100000
100000
100000
100000
100000
100000
100000
100000
100000
100000
100000
100000
100000
100000
100000
100000
100000
100000
100000
100000
100000
100000
100000
100000
100000
100000
100000
100000
100000
100000
100000
100000
100000
100000
100000
100000
100000
100000
100000
100000
100000
100000
100000
100000
100000
100000
100000
100000
100000
100000
100000
100000
100000
100000
100000
100000
100000
100000
100000
100000
100000
100000
100000
100000
100000
100000
100000
100000
100000
100000
99999.9
99999.9
99999.8
99999.6
99999.4
99999
99998.4
99997.4
99995.9
99993.6
99990.2
99985.1
99977.6
99966.8
99951.4
99929.6
99899.6
99858.7
99804
99732.2
99639.8
99523.1
99379.2
99205.9
99003.1
98773.2
98519.6
98245.3
97952.3
97642.8
97318.6
96981.5
96633.2
96275.3
95909.1
95535.9
95156.8
94772.6
94384.3
93992.5
93597.8
93200.7
92801.7
92401.2
91999.4
91596.7
91193.4
90789.5
90385.4
89981.1
89576.9
89172.9
88769.1
88365.7
87962.8
87560.5
87158.8
86757.7
86357.5
85958
85559.5
85161.8
84765.1
84369.4
83974.7
83581
83188.5
82797.1
82406.8
82017.7
81629.8
81243.1
80857.6
80473.3
80090.3
79708.6
79328.2
78949.1
78571.4
78194.9
77819.8
77446
77073.6
76702.6
76333
75964.7
75597.8
75232.4
74868.4
74505.7
74144.5
73784.8
73426.5
73069.6
72714.2
72360.2
72007.7
71656.7
71307.1
70959
70612.4
70267.3
69923.6
69581.5
69240.9
68901.8
68564.1
68228
67893.5
67560.4
67228.9
66898.9
66570.5
66243.6
65918.2
65594.4
65272.2
64951.5
64632.5
64315
63999.1
63684.8
63372.1
63061
62751.6
62443.7
62137.6
61833.1
61530.2
61229.1
60929.6
60631.8
60335.8
60041.5
59749
59458.2
59169.3
58882.2
58596.9
58313.4
58031.9
57752.3
57474.6
57198.9
56925.3
56653.7
56384.2
56116.8
55851.6
55588.7
55328.1
55069.8
54814
54560.6
54309.8
54061.6
53816.2
53573.6
53334
53097.3
52863.8
52633.7
52406.9
52183.8
51964.2
51748.8
51537.2
51330.2
51127.5
50929.7
50736.7
50548.9
50366.8
50190.2
50019.9
49855.8
49698.5
49548.1
49404.9
49269.4
49141.7
49022.1
48910.9
48808.1
48714
48628.4
48551.8
48483.5
48423.6
48371.9
48327.7
48290.8
48260.7
48236.4
48217.6
48203.7
48193.3
48186.4
48182.3
48180
48179.2
48179.2
48179.3
48179.5
48179.9
48180.7
48182.3
48184.9
48187.5
48189.9
48191.9
48193.7
48195
48195.9
48196.7
48197.2
48197.6
48197.9
48198.1
48198.3
48198.4
48198.5
48198.6
48198.7
48198.8
48198.9
48199.1
48199.2
48199.3
48199.4
48199.4
48199.5
48199.6
48199.7
48199.8
48200
48200.1
48200.1
48200.2
48200.3
48200.4
48200.5
48200.6
48200.7
48200.8
48200.8
48200.9
48201
48201.1
48201.2
48201.2
48201.3
48201.4
48201.5
48201.6
48201.6
48201.7
48201.8
48201.9
48201.9
48202
48202.1
48202.2
48202.2
48202.3
48202.4
48202.5
48202.5
48202.6
48202.7
48202.8
48202.8
48202.9
48203
48203.1
48203.1
48203.2
48203.3
48203.3
48203.4
48203.5
48203.5
48203.6
48203.6
48203.6
48203.7
48203.7
48203.7
48203.8
48203.8
48203.8
48203.9
48203.9
48203.9
48203.9
48203.9
48204
48204
48204
48204
48204
48204
48204
48204
48204
48204
48204.1
48204.1
48204.1
48204.1
48204.1
48204.1
48204.1
48204.1
48204.2
48204.2
48204.2
48204.2
48204.2
48204.3
48204.3
48204.3
48204.3
48204.4
48204.4
48204.4
48204.4
48204.4
48204.5
48204.5
48204.5
48204.5
48204.5
48204.5
48204.5
48204.6
48204.6
48204.6
48204.6
48204.6
48204.6
48204.6
48204.6
48204.6
48204.6
48204.6
48204.6
48204.6
48204.6
48204.6
48204.6
48204.6
48204.6
48204.6
48204.6
48204.6
48204.5
48204.5
48204.6
48204.6
48204.5
48204.5
48204.5
48204.5
48204.5
48204.4
48204.5
48204.5
48204.5
48204.5
48204.6
48204.6
48204.6
48204.6
48204.4
48204.5
48204.9
48204.9
48204.7
48204
48204.3
48205.3
48205.7
48206.2
48207.9
48209.5
48201.9
48202.7
48205.1
48201.8
48196.1
48204.5
48212
48209.5
48199.2
48200.4
48210.5
48211.5
48201.3
48197.4
48207
48214
48205.2
48195
48201.1
48214.5
48212.5
48197.1
48194.9
48209.8
48215.9
48204.3
48194.8
48202.3
48214.4
48210.7
48196.1
48196.3
48211.6
48215.3
48201.3
48193.8
48205.2
48215.7
48207.8
48194.4
48198.7
48214
48214.2
48198.1
48193.7
48208
48216.4
48206
48193.8
48199.3
48214.2
48213.1
48197
48194.4
48209.8
48215.9
48202.4
48192.8
48203.1
48216.1
48210.3
48193.9
48195.2
48213
48216.1
48199.4
48192.1
48205.1
48216.3
48208.3
48193.5
48196.5
48213.6
48214.7
48197.5
48192.5
48207.8
48216.6
48204.5
48191.8
48199.5
48215.8
48212.9
48193.8
48192.5
48211.6
48217.2
48200
48190.1
48203.1
48217.4
48210.3
48191.7
48192.8
48212.8
48216.6
48198.9
48190.4
48203.3
48216.2
48208.6
48191.5
48194.1
48213.3
48215.2
48196.2
48189.9
48205.5
48216.3
48205.2
48190
48195.7
48214.5
48213.2
48192.5
48189.3
48208.8
48216.5
48199.8
48187.2
48198.4
48215.5
48209.8
48188.8
48188.8
48209.9
48215
48195.7
48185.4
48199
48213.9
48205.6
48186.2
48188
48208.9
48211.5
48190.4
48182.5
48198.8
48211.3
48198.5
48180.9
48185.7
48206.2
48205.8
48182.7
48177.1
48194.6
48205
48188.9
48173.3
48179.7
48198.2
48194.5
48171.4
48167.7
48185.2
48192.7
48172.5
48159.6
48166.8
48182.6
48174.4
48152.1
48149.8
48164.7
48169
48145.9
48135.7
48141
48153
48139
48119
48116.6
48126.4
48126
48098.4
48090.3
48091.7
48099.3
48076.6
48054.5
48049.7
48054
48048.1
48005.4
47992.6
47991
47998.4
47952.4
47917.3
47909.4
47916.8
47891.8
47810.3
47787.7
47785.6
47788.1
47668
47603.6
47583.7
47597.5
47487.3
47292.5
47137.9
46889.2
46384.1
44733
37714.3
28837.3
26052.3
25259.5
25062
25014.7
25003.5
25000.8
25000.2
25000
25000
25000
25000
25000
25000
25000
25000
25000
25000
25000
25000
25000
25000
25000
25000
25000
25000
25000
25000
25000
25000
25000
25000
25000
25000
25000
25000
25000
25000
25000
25000
25000
25000
25000
25000
25000
25000
25000
25000
25000
25000
25000
25000
25000
25000
25000
25000
25000
25000
25000
25000
25000
25000
25000
25000
25000
25000
25000
25000
25000
25000
25000
25000
25000
25000
25000
25000
25000
25000
25000
25000
25000
25000
25000
25000
25000
25000
25000
25000
25000
25000
25000
25000
25000
25000
25000
25000
25000
25000
25000
25000
25000
25000
25000
25000
25000
25000
25000
25000
25000
25000
25000
25000
25000
25000
25000
25000
25000
25000
25000
25000
25000
25000
25000
25000
25000
25000
25000
25000
25000
25000
25000
25000
25000
25000
25000
25000
25000
25000
25000
25000
25000
25000
25000
25000
25000
25000
25000
25000
25000
25000
25000
25000
25000
25000
25000
25000
25000
25000
25000
25000
25000
25000
25000
25000
25000
25000
25000
25000
25000
25000
25000
25000
25000
25000
25000
25000
)
;

boundaryField
{
    sides
    {
        type            zeroGradient;
    }
    empty
    {
        type            empty;
    }
}


// ************************************************************************* //
