/*--------------------------------*- C++ -*----------------------------------*\
| =========                 |                                                 |
| \\      /  F ield         | OpenFOAM: The Open Source CFD Toolbox           |
|  \\    /   O peration     | Version:  4.1                                   |
|   \\  /    A nd           | Web:      www.OpenFOAM.org                      |
|    \\/     M anipulation  |                                                 |
\*---------------------------------------------------------------------------*/
FoamFile
{
    version     2.0;
    format      ascii;
    class       surfaceScalarField;
    location    "0.006";
    object      phi;
}
// * * * * * * * * * * * * * * * * * * * * * * * * * * * * * * * * * * * * * //

dimensions      [1 0 -1 0 0 0 0];

internalField   nonuniform List<scalar> 
999
(
-5.26157e-11
-5.87264e-11
-6.78e-11
-7.02371e-11
-7.59073e-11
-8.04761e-11
-8.80007e-11
-8.66365e-11
-8.96634e-11
-9.44524e-11
-1.00854e-10
-1.02183e-10
-1.02496e-10
-1.10276e-10
-1.09587e-10
-1.09736e-10
-1.09878e-10
-1.05281e-10
-1.05871e-10
-1.07001e-10
-1.01807e-10
-9.53833e-11
-9.62075e-11
-9.68754e-11
-8.94715e-11
-8.14779e-11
-7.14948e-11
-7.08198e-11
-7.47278e-11
-6.97327e-11
-6.82832e-11
-6.22862e-11
-5.09104e-11
-5.29781e-11
-4.61711e-11
-4.79901e-11
-4.42739e-11
-4.63842e-11
-3.81561e-11
-3.417e-11
-3.84119e-11
-2.85425e-11
-2.03073e-11
-2.44142e-11
-2.25455e-11
-1.50351e-11
-1.9412e-11
-2.02789e-11
-1.86873e-11
-2.06057e-11
-1.3948e-11
-7.33991e-12
-1.25766e-11
-1.01039e-11
-1.74936e-11
-2.5743e-11
-3.36513e-11
-4.02594e-11
-4.46008e-11
-3.48024e-11
-3.57474e-11
-3.31255e-11
-3.97762e-11
-3.40634e-11
-2.79243e-11
-2.90399e-11
-2.4059e-11
-2.06413e-11
-2.47624e-11
-1.79483e-11
-1.2804e-11
-1.44027e-11
-1.71738e-11
-1.22995e-11
-1.20366e-11
-1.35216e-11
-5.8904e-12
-6.55831e-12
-1.59872e-12
-7.97939e-12
-3.60956e-12
1.79057e-12
2.55085e-12
5.00222e-12
7.62412e-12
9.031e-12
3.26139e-12
5.29354e-12
5.98988e-12
8.32046e-12
1.20082e-11
1.91918e-11
1.86873e-11
1.52198e-11
1.33653e-11
1.89146e-11
2.32916e-11
2.23324e-11
1.87086e-11
2.72635e-11
2.87201e-11
3.06954e-11
3.34524e-11
3.17684e-11
2.98144e-11
2.66951e-11
1.89075e-11
2.28795e-11
2.20268e-11
2.48193e-11
2.69154e-11
2.81091e-11
2.80167e-11
2.76472e-11
3.98543e-11
4.01599e-11
3.48948e-11
3.08376e-11
3.41558e-11
3.93001e-11
4.69527e-11
4.78195e-11
5.29923e-11
5.15357e-11
4.32365e-11
4.39329e-11
4.81251e-11
5.38378e-11
5.52589e-11
5.09033e-11
4.56595e-11
4.03659e-11
3.9023e-11
3.91722e-11
4.19575e-11
4.26112e-11
4.0977e-11
3.52429e-11
3.51505e-11
3.56124e-11
3.88169e-11
4.01172e-11
4.83311e-11
5.60831e-11
6.17462e-11
6.18741e-11
6.25064e-11
6.22151e-11
6.88445e-11
6.31246e-11
6.45954e-11
7.10614e-11
7.50404e-11
7.00382e-11
6.807e-11
6.7466e-11
6.20588e-11
6.89084e-11
6.8475e-11
6.9079e-11
6.96403e-11
7.1978e-11
7.56586e-11
7.56941e-11
7.59002e-11
8.13145e-11
8.83205e-11
8.45262e-11
8.46327e-11
8.67786e-11
8.55493e-11
8.54286e-11
8.42277e-11
8.66081e-11
8.2693e-11
7.97087e-11
8.56346e-11
7.79039e-11
8.00497e-11
7.84155e-11
7.70086e-11
8.22382e-11
8.64588e-11
8.27001e-11
8.8086e-11
8.48317e-11
8.62741e-11
8.69704e-11
7.98082e-11
8.01919e-11
7.45359e-11
6.82974e-11
6.7736e-11
5.92379e-11
5.98774e-11
5.95293e-11
6.31957e-11
6.14477e-11
5.45768e-11
4.68745e-11
5.02496e-11
5.98064e-11
8.71836e-11
1.38357e-10
2.44732e-10
4.60517e-10
8.98567e-10
1.76981e-09
3.48418e-09
6.83274e-09
1.333e-08
2.58387e-08
4.97614e-08
9.51766e-08
1.80775e-07
3.40931e-07
6.38377e-07
1.1867e-06
2.18982e-06
4.01088e-06
7.29098e-06
1.31522e-05
2.35412e-05
4.1804e-05
7.36397e-05
0.000128662
0.00022293
0.000383004
0.000652352
0.00110137
0.00184279
0.00305514
0.00501774
0.00816237
0.0131479
0.0209662
0.0330898
0.0516724
0.0798148
0.121907
0.184052
0.274574
0.40459
0.588601
0.845052
1.19673
1.67087
2.2988
3.11485
4.15442
5.45077
7.03033
8.90543
11.0633
13.4701
16.0923
18.9038
21.8832
25.0104
28.2666
31.6336
35.095
38.6356
42.242
45.9024
49.6064
53.3453
57.1113
60.8979
64.6995
68.5112
72.329
76.1493
79.9691
83.7856
87.5966
91.4
95.1942
98.9775
102.749
106.507
110.25
113.978
117.69
121.385
125.062
128.721
132.362
135.983
139.585
143.166
146.727
150.268
153.787
157.286
160.763
164.218
167.651
171.062
174.452
177.818
181.163
184.485
187.784
191.06
194.314
197.545
200.753
203.937
207.099
210.238
213.353
216.446
219.515
222.561
225.584
228.584
231.56
234.513
237.443
240.35
243.234
246.094
248.931
251.745
254.536
257.304
260.049
262.77
265.469
268.144
270.797
273.426
276.033
278.617
281.178
283.716
286.231
288.724
291.193
293.641
296.065
298.467
300.846
303.203
305.537
307.849
310.138
312.405
314.649
316.872
319.071
321.249
323.404
325.537
327.648
329.736
331.803
333.847
335.869
337.868
339.846
341.801
343.734
345.645
347.534
349.4
351.244
353.066
354.865
356.642
358.396
360.128
361.837
363.523
365.187
366.827
368.444
370.038
371.608
373.155
374.677
376.176
377.649
379.099
380.522
381.922
383.293
384.643
385.958
387.259
388.513
389.763
390.957
392.146
393.289
394.399
395.503
396.524
397.579
398.528
399.493
400.41
401.25
402.127
402.883
403.643
404.376
404.997
405.656
406.224
406.727
407.254
407.669
408.053
408.438
408.716
408.982
409.233
409.399
409.556
409.698
409.782
409.853
409.919
409.952
409.966
409.986
409.993
409.989
409.985
409.984
409.981
409.976
409.968
409.957
409.947
409.934
409.922
409.913
409.904
409.897
409.893
409.889
409.886
409.885
409.883
409.881
409.879
409.878
409.875
409.873
409.872
409.871
409.869
409.868
409.867
409.865
409.863
409.862
409.86
409.858
409.857
409.855
409.854
409.852
409.851
409.849
409.847
409.845
409.843
409.842
409.84
409.839
409.837
409.835
409.834
409.832
409.83
409.828
409.827
409.825
409.823
409.821
409.819
409.817
409.815
409.814
409.811
409.809
409.808
409.805
409.803
409.801
409.799
409.797
409.795
409.793
409.79
409.788
409.786
409.784
409.781
409.779
409.777
409.774
409.772
409.77
409.768
409.765
409.763
409.761
409.758
409.755
409.752
409.75
409.748
409.745
409.742
409.74
409.738
409.734
409.731
409.728
409.726
409.723
409.719
409.716
409.714
409.711
409.707
409.703
409.7
409.698
409.695
409.69
409.686
409.683
409.68
409.676
409.671
409.666
409.663
409.66
409.656
409.649
409.643
409.639
409.636
409.632
409.626
409.619
409.613
409.609
409.606
409.601
409.593
409.584
409.576
409.571
409.568
409.564
409.556
409.545
409.534
409.526
409.521
409.518
409.513
409.501
409.486
409.472
409.462
409.456
409.452
409.445
409.43
409.41
409.39
409.376
409.368
409.362
409.355
409.34
409.309
409.281
409.26
409.248
409.24
409.231
409.215
409.178
409.131
409.086
409.052
409.029
409.016
409.007
408.996
408.96
408.856
408.735
408.626
408.543
408.494
408.465
408.453
408.457
408.543
408.705
408.799
408.824
408.806
408.014
402.326
383.018
361.989
342.902
326.431
313.153
302.787
294.567
288.083
283.413
280.312
278.09
276.314
275.044
274.421
274.221
273.889
273.378
273.236
273.55
273.611
273.255
273.07
273.279
273.558
273.468
273.131
273.128
273.495
273.565
273.209
273.077
273.361
273.583
273.42
273.106
273.177
273.545
273.562
273.16
273.086
273.473
273.611
273.337
273.095
273.243
273.579
273.556
273.157
273.101
273.5
273.614
273.304
273.102
273.306
273.598
273.499
273.131
273.142
273.563
273.628
273.2
273.078
273.416
273.635
273.442
273.112
273.178
273.581
273.614
273.18
273.093
273.466
273.63
273.385
273.11
273.239
273.605
273.576
273.143
273.098
273.561
273.663
273.259
273.073
273.345
273.649
273.508
273.099
273.128
273.608
273.672
273.182
273.054
273.408
273.656
273.481
273.108
273.148
273.595
273.645
273.173
273.066
273.458
273.659
273.411
273.088
273.196
273.617
273.615
273.137
273.064
273.532
273.673
273.297
273.05
273.282
273.654
273.547
273.078
273.072
273.594
273.681
273.178
273.012
273.356
273.664
273.475
273.048
273.086
273.588
273.649
273.12
272.993
273.399
273.647
273.375
273.001
273.107
273.583
273.587
273.039
272.944
273.432
273.621
273.236
272.932
273.094
273.532
273.479
272.951
272.89
273.385
273.533
273.042
272.825
273.038
273.424
273.28
272.799
272.773
273.243
273.349
272.788
272.657
272.863
273.195
272.948
272.549
272.548
272.933
272.986
272.41
272.338
272.495
272.777
272.365
272.073
272.084
272.359
272.341
271.693
271.647
271.761
272.071
271.347
271.016
271.059
271.387
271.228
270.144
270.051
270.253
270.686
269.064
268.665
268.791
269.473
268.485
266.582
266.514
267.077
267.42
263.225
261.868
260.746
257.202
249.233
219.161
79.1085
24.3648
6.21223
1.49911
0.3562
0.0843064
0.0199415
0.00471695
0.00111573
0.000263904
6.24179e-05
1.47624e-05
3.49137e-06
8.25706e-07
1.95277e-07
4.61837e-08
1.09253e-08
2.5875e-09
6.15918e-10
1.50354e-10
4.06875e-11
1.47313e-11
8.76987e-12
8.86935e-12
6.95621e-12
7.44826e-12
8.41993e-12
7.66143e-12
7.78755e-12
8.48566e-12
9.88543e-12
1.18767e-11
1.03348e-11
8.33822e-12
7.63301e-12
8.66685e-12
8.73257e-12
1.00773e-11
1.1342e-11
9.50173e-12
9.99378e-12
8.53895e-12
7.86038e-12
6.70397e-12
5.47651e-12
6.17106e-12
7.93143e-12
9.80727e-12
1.02318e-11
1.16316e-11
1.26708e-11
1.41434e-11
1.40528e-11
1.6076e-11
1.69127e-11
1.59392e-11
1.64242e-11
1.75291e-11
1.94014e-11
1.97122e-11
1.92717e-11
2.05684e-11
2.16698e-11
2.20339e-11
2.10996e-11
2.14406e-11
2.26539e-11
2.25846e-11
2.29026e-11
2.16662e-11
2.04405e-11
1.88844e-11
1.75611e-11
1.76215e-11
1.5806e-11
1.4694e-11
1.3431e-11
1.17844e-11
1.23084e-11
1.38041e-11
1.32978e-11
1.52038e-11
1.50475e-11
1.41398e-11
1.59606e-11
1.74172e-11
1.94067e-11
2.08349e-11
2.09202e-11
1.95932e-11
2.15277e-11
1.93285e-11
1.95435e-11
1.99947e-11
2.06981e-11
2.11848e-11
2.09806e-11
2.23253e-11
2.35882e-11
2.15561e-11
2.14939e-11
2.15401e-11
2.2375e-11
2.20393e-11
2.20766e-11
2.33893e-11
2.47322e-11
2.48761e-11
2.37996e-11
2.50111e-11
2.63256e-11
2.57803e-11
2.5949e-11
2.60822e-11
2.76792e-11
2.9285e-11
2.84874e-11
2.87184e-11
2.8443e-11
2.61799e-11
2.62634e-11
2.5393e-11
2.59046e-11
2.60787e-11
2.68479e-11
2.68336e-11
2.66347e-11
2.57856e-11
2.44196e-11
2.36877e-11
2.37623e-11
2.189e-11
2.18527e-11
2.15525e-11
2.18581e-11
2.1199e-11
2.20943e-11
2.4027e-11
2.33804e-11
2.32809e-11
2.53131e-11
2.49543e-11
2.47233e-11
2.39773e-11
2.22311e-11
2.19309e-11
2.11866e-11
2.12115e-11
2.06803e-11
1.92895e-11
1.89573e-11
2.04423e-11
2.0842e-11
2.08757e-11
2.04547e-11
1.83569e-11
1.71436e-11
1.62785e-11
1.61791e-11
1.57687e-11
1.64917e-11
1.69482e-11
1.74012e-11
1.72449e-11
1.78808e-11
1.99201e-11
1.99698e-11
2.03269e-11
2.08633e-11
2.21831e-11
2.16076e-11
2.28617e-11
2.31708e-11
2.44356e-11
2.34373e-11
2.28457e-11
)
;

boundaryField
{
    sides
    {
        type            calculated;
        value           nonuniform List<scalar> 2(2.11051e-11 4.91915e-11);
    }
    empty
    {
        type            empty;
        value           nonuniform 0();
    }
}


// ************************************************************************* //
