/*--------------------------------*- C++ -*----------------------------------*\
| =========                 |                                                 |
| \\      /  F ield         | OpenFOAM: The Open Source CFD Toolbox           |
|  \\    /   O peration     | Version:  4.1                                   |
|   \\  /    A nd           | Web:      www.OpenFOAM.org                      |
|    \\/     M anipulation  |                                                 |
\*---------------------------------------------------------------------------*/
FoamFile
{
    version     2.0;
    format      ascii;
    class       volScalarField;
    location    "0.006";
    object      T;
}
// * * * * * * * * * * * * * * * * * * * * * * * * * * * * * * * * * * * * * //

dimensions      [0 0 0 1 0 0 0];

internalField   nonuniform List<scalar> 
1000
(
400
400
400
400
400
400
400
400
400
400
400
400
400
400
400
400
400
400
400
400
400
400
400
400
400
400
400
400
400
400
400
400
400
400
400
400
400
400
400
400
400
400
400
400
400
400
400
400
400
400
400
400
400
400
400
400
400
400
400
400
400
400
400
400
400
400
400
400
400
400
400
400
400
400
400
400
400
400
400
400
400
400
400
400
400
400
400
400
400
400
400
400
400
400
400
400
400
400
400
400
400
400
400
400
400
400
400
400
400
400
400
400
400
400
400
400
400
400
400
400
400
400
400
400
400
400
400
400
400
400
400
400
400
400
400
400
400
400
400
400
400
400
400
400
400
400
400
400
400
400
400
400
400
400
400
400
400
400
400
400
400
400
400
400
400
400
400
400
400
400
400
400
400
400
400
400
400
400
400
400
400
400
400
400
400
400
400
400
400
400
400
400
400
400
400
400
400
400
400
400
400
400
400
400
400
400
400
400
400
400
400
400
400
400
400
400
400
400
400
400
400
400
400
400
400
400
400
400
400
400
400
400
400
399.999
399.999
399.998
399.997
399.995
399.993
399.989
399.983
399.974
399.962
399.944
399.919
399.885
399.838
399.775
399.693
399.587
399.453
399.288
399.088
398.854
398.589
398.296
397.978
397.638
397.278
396.9
396.506
396.098
395.678
395.247
394.806
394.357
393.901
393.438
392.97
392.497
392.02
391.539
391.054
390.567
390.077
389.585
389.09
388.594
388.096
387.596
387.095
386.592
386.089
385.584
385.079
384.572
384.065
383.557
383.049
382.54
382.03
381.52
381.009
380.498
379.987
379.476
378.964
378.452
377.939
377.427
376.914
376.402
375.889
375.376
374.863
374.351
373.838
373.325
372.812
372.299
371.787
371.274
370.762
370.25
369.738
369.226
368.714
368.202
367.691
367.18
366.669
366.159
365.649
365.139
364.629
364.12
363.611
363.102
362.594
362.086
361.579
361.072
360.565
360.059
359.554
359.049
358.544
358.04
357.536
357.033
356.531
356.029
355.528
355.027
354.527
354.028
353.529
353.031
352.534
352.037
351.542
351.047
350.553
350.059
349.567
349.076
348.585
348.096
347.607
347.12
346.633
346.148
345.664
345.181
344.7
344.219
343.741
343.263
342.787
342.313
341.84
341.369
340.899
340.432
339.966
339.503
339.041
338.582
338.125
337.671
337.219
336.77
336.325
335.881
335.442
335.005
334.575
334.141
333.725
333.29
332.9
332.45
332.103
331.622
331.333
330.822
330.574
330.079
329.804
329.409
329.036
328.778
328.34
328.12
327.767
327.447
327.25
326.881
326.688
326.457
326.161
326.035
325.801
325.598
325.503
325.307
325.179
325.11
324.969
324.894
324.854
324.769
324.726
324.711
324.672
324.649
324.647
324.64
324.631
324.632
324.635
324.635
324.635
324.636
324.639
324.644
324.648
324.654
324.66
324.663
324.667
324.671
324.672
324.675
324.677
324.678
324.679
324.68
324.681
324.682
324.683
324.684
324.684
324.685
324.686
324.687
324.688
324.689
324.69
324.691
324.692
324.693
324.694
324.694
324.696
324.697
324.697
324.699
324.7
324.7
324.701
324.703
324.704
324.704
324.706
324.707
324.707
324.709
324.71
324.711
324.712
324.713
324.715
324.716
324.717
324.718
324.719
324.72
324.721
324.723
324.724
324.725
324.727
324.728
324.729
324.731
324.732
324.733
324.735
324.736
324.738
324.739
324.741
324.742
324.743
324.745
324.747
324.748
324.75
324.752
324.754
324.755
324.756
324.758
324.761
324.762
324.763
324.765
324.768
324.77
324.771
324.773
324.776
324.778
324.779
324.781
324.783
324.787
324.789
324.79
324.792
324.795
324.798
324.8
324.801
324.805
324.808
324.811
324.812
324.815
324.818
324.823
324.826
324.827
324.829
324.834
324.839
324.843
324.845
324.847
324.851
324.856
324.862
324.866
324.868
324.87
324.875
324.882
324.889
324.894
324.896
324.898
324.902
324.91
324.919
324.928
324.932
324.935
324.937
324.943
324.954
324.966
324.976
324.982
324.985
324.988
324.996
325.011
325.027
325.041
325.049
325.053
325.057
325.065
325.084
325.108
325.128
325.142
325.149
325.153
325.161
325.182
325.218
325.256
325.288
325.31
325.322
325.328
325.335
325.351
325.405
325.498
325.591
325.669
325.725
325.758
325.769
325.768
325.736
325.63
325.523
325.459
325.45
325.706
327.929
337.752
357.491
378.177
398.218
416.65
432.865
446.501
457.485
466.002
472.428
477.137
480.453
482.701
484.216
485.244
485.905
486.279
486.489
486.646
486.771
486.814
486.79
486.789
486.835
486.856
486.821
486.785
486.8
486.836
486.828
486.778
486.77
486.814
486.827
486.784
486.755
486.782
486.816
486.795
486.748
486.752
486.799
486.802
486.751
486.731
486.769
486.797
486.769
486.726
486.734
486.781
486.781
486.729
486.715
486.758
486.779
486.74
486.705
486.728
486.771
486.758
486.704
486.7
486.754
486.766
486.717
486.689
486.722
486.759
486.74
486.69
486.692
486.745
486.752
486.7
486.679
486.721
486.751
486.72
486.675
486.691
486.743
486.74
486.678
486.668
486.724
486.745
486.696
486.66
486.692
486.739
486.724
486.662
486.659
486.72
486.735
486.685
486.653
486.686
486.729
486.712
486.655
486.655
486.715
486.725
486.668
486.644
486.686
486.723
486.696
486.644
486.654
486.715
486.716
486.652
486.636
486.692
486.72
486.675
486.631
486.657
486.713
486.703
486.635
486.629
486.692
486.712
486.657
486.62
486.653
486.703
486.685
486.621
486.62
486.685
486.699
486.636
486.607
486.65
486.694
486.663
486.604
486.61
486.675
486.68
486.609
486.587
486.636
486.673
486.631
486.577
486.589
486.649
486.646
486.573
486.558
486.607
486.636
486.58
486.534
486.549
486.601
486.586
486.513
486.503
486.545
486.564
486.496
486.461
486.474
486.515
486.482
486.413
486.404
486.432
486.44
486.357
486.331
486.332
486.357
486.297
486.225
486.209
486.217
486.217
486.086
486.041
486.034
486.067
485.938
485.815
485.804
485.837
485.775
485.499
485.449
485.435
485.445
485.116
484.943
484.832
484.849
484.647
483.998
483.456
482.691
481.305
476.889
455.719
417.41
404.82
401.189
400.284
400.067
400.016
400.004
400.001
400
400
400
400
400
400
400
400
400
400
400
400
400
400
400
400
400
400
400
400
400
400
400
400
400
400
400
400
400
400
400
400
400
400
400
400
400
400
400
400
400
400
400
400
400
400
400
400
400
400
400
400
400
400
400
400
400
400
400
400
400
400
400
400
400
400
400
400
400
400
400
400
400
400
400
400
400
400
400
400
400
400
400
400
400
400
400
400
400
400
400
400
400
400
400
400
400
400
400
400
400
400
400
400
400
400
400
400
400
400
400
400
400
400
400
400
400
400
400
400
400
400
400
400
400
400
400
400
400
400
400
400
400
400
400
400
400
400
400
400
400
400
400
400
400
400
400
400
400
400
400
400
400
400
400
400
400
400
400
400
400
400
400
400
400
400
400
400
)
;

boundaryField
{
    sides
    {
        type            zeroGradient;
    }
    empty
    {
        type            empty;
    }
}


// ************************************************************************* //
