/*--------------------------------*- C++ -*----------------------------------*\
| =========                 |                                                 |
| \\      /  F ield         | OpenFOAM: The Open Source CFD Toolbox           |
|  \\    /   O peration     | Version:  4.1                                   |
|   \\  /    A nd           | Web:      www.OpenFOAM.org                      |
|    \\/     M anipulation  |                                                 |
\*---------------------------------------------------------------------------*/
FoamFile
{
    version     2.0;
    format      ascii;
    class       volVectorField;
    location    "0.006";
    object      U;
}
// * * * * * * * * * * * * * * * * * * * * * * * * * * * * * * * * * * * * * //

dimensions      [0 1 -1 0 0 0 0];

internalField   nonuniform List<vector> 
1000
(
(-1.41858e-11 0 0)
(-1.54794e-11 0 0)
(-1.86356e-11 0 0)
(-1.94712e-11 0 0)
(-2.12772e-11 0 0)
(-2.23576e-11 0 0)
(-2.4431e-11 0 0)
(-2.52629e-11 0 0)
(-2.5149e-11 0 0)
(-2.66945e-11 0 0)
(-2.76587e-11 0 0)
(-2.95834e-11 0 0)
(-2.88731e-11 0 0)
(-3.1622e-11 0 0)
(-3.06633e-11 0 0)
(-3.2665e-11 0 0)
(-3.05376e-11 0 0)
(-3.26191e-11 0 0)
(-2.79879e-11 0 0)
(-3.33567e-11 0 0)
(-2.78501e-11 0 0)
(-2.96042e-11 0 0)
(-2.64709e-11 0 0)
(-2.91056e-11 0 0)
(-2.56537e-11 0 0)
(-2.57025e-11 0 0)
(-2.09243e-11 0 0)
(-2.04924e-11 0 0)
(-2.1558e-11 0 0)
(-2.03226e-11 0 0)
(-1.98359e-11 0 0)
(-1.9071e-11 0 0)
(-1.64068e-11 0 0)
(-1.40095e-11 0 0)
(-1.60313e-11 0 0)
(-1.14414e-11 0 0)
(-1.51577e-11 0 0)
(-1.1282e-11 0 0)
(-1.41221e-11 0 0)
(-8.31926e-12 0 0)
(-1.23058e-11 0 0)
(-8.94032e-12 0 0)
(-7.80207e-12 0 0)
(-4.219e-12 0 0)
(-9.31574e-12 0 0)
(-3.39155e-12 0 0)
(-5.80293e-12 0 0)
(-4.88419e-12 0 0)
(-6.6263e-12 0 0)
(-4.73563e-12 0 0)
(-6.49373e-12 0 0)
(-1.61026e-12 0 0)
(-3.09736e-12 0 0)
(-3.37982e-12 0 0)
(-3.04018e-12 0 0)
(-6.45735e-12 0 0)
(-8.35056e-12 0 0)
(-1.10797e-11 0 0)
(-1.21883e-11 0 0)
(-1.27637e-11 0 0)
(-8.32496e-12 0 0)
(-1.07997e-11 0 0)
(-9.60542e-12 0 0)
(-1.22699e-11 0 0)
(-6.96616e-12 0 0)
(-9.69735e-12 0 0)
(-6.64871e-12 0 0)
(-7.58041e-12 0 0)
(-4.6806e-12 0 0)
(-8.59129e-12 0 0)
(-2.24371e-12 0 0)
(-5.44676e-12 0 0)
(-2.87707e-12 0 0)
(-6.62681e-12 0 0)
(-3.43209e-13 0 0)
(-6.88759e-12 0 0)
(-5.35149e-13 0 0)
(-3.15575e-12 0 0)
(-2.34768e-13 0 0)
(-8.70691e-13 0 0)
(-3.21401e-12 0 0)
(8.12687e-13 0 0)
(2.14143e-13 0 0)
(1.40376e-12 0 0)
(1.13093e-12 0 0)
(4.00072e-12 0 0)
(1.81535e-13 0 0)
(2.30031e-12 0 0)
(1.57876e-13 0 0)
(3.56051e-12 0 0)
(8.90044e-13 0 0)
(6.61495e-12 0 0)
(4.00307e-12 0 0)
(6.60716e-12 0 0)
(1.67312e-12 0 0)
(6.18612e-12 0 0)
(5.00864e-12 0 0)
(8.111e-12 0 0)
(4.13108e-12 0 0)
(7.37806e-12 0 0)
(7.85482e-12 0 0)
(8.31804e-12 0 0)
(9.91772e-12 0 0)
(8.45664e-12 0 0)
(9.85495e-12 0 0)
(8.50561e-12 0 0)
(5.55231e-12 0 0)
(6.03395e-12 0 0)
(6.62689e-12 0 0)
(6.74712e-12 0 0)
(6.95749e-12 0 0)
(8.11825e-12 0 0)
(8.59807e-12 0 0)
(6.74028e-12 0 0)
(1.03102e-11 0 0)
(1.15517e-11 0 0)
(1.16878e-11 0 0)
(8.79427e-12 0 0)
(9.13693e-12 0 0)
(1.01761e-11 0 0)
(1.27409e-11 0 0)
(1.35027e-11 0 0)
(1.46903e-11 0 0)
(1.55295e-11 0 0)
(1.33226e-11 0 0)
(1.23197e-11 0 0)
(1.29586e-11 0 0)
(1.55245e-11 0 0)
(1.52116e-11 0 0)
(1.6309e-11 0 0)
(1.28858e-11 0 0)
(1.2489e-11 0 0)
(1.14369e-11 0 0)
(1.08495e-11 0 0)
(1.17496e-11 0 0)
(1.23308e-11 0 0)
(1.24946e-11 0 0)
(1.08335e-11 0 0)
(9.7043e-12 0 0)
(9.89162e-12 0 0)
(1.10433e-11 0 0)
(1.1379e-11 0 0)
(1.19966e-11 0 0)
(1.53676e-11 0 0)
(1.67529e-11 0 0)
(1.81541e-11 0 0)
(1.8066e-11 0 0)
(1.72384e-11 0 0)
(1.99913e-11 0 0)
(1.8052e-11 0 0)
(1.88565e-11 0 0)
(1.88791e-11 0 0)
(2.25654e-11 0 0)
(1.94975e-11 0 0)
(2.09735e-11 0 0)
(1.89233e-11 0 0)
(1.83448e-11 0 0)
(1.96296e-11 0 0)
(1.84652e-11 0 0)
(2.04563e-11 0 0)
(1.9754e-11 0 0)
(2.05969e-11 0 0)
(2.1124e-11 0 0)
(2.14129e-11 0 0)
(2.16985e-11 0 0)
(2.28767e-11 0 0)
(2.46161e-11 0 0)
(2.47456e-11 0 0)
(2.48476e-11 0 0)
(2.41347e-11 0 0)
(2.50131e-11 0 0)
(2.51237e-11 0 0)
(2.35554e-11 0 0)
(2.5384e-11 0 0)
(2.40216e-11 0 0)
(2.36806e-11 0 0)
(2.31438e-11 0 0)
(2.46278e-11 0 0)
(2.11726e-11 0 0)
(2.4414e-11 0 0)
(2.08258e-11 0 0)
(2.32721e-11 0 0)
(2.45976e-11 0 0)
(2.42277e-11 0 0)
(2.47454e-11 0 0)
(2.48591e-11 0 0)
(2.40715e-11 0 0)
(2.57088e-11 0 0)
(2.38882e-11 0 0)
(2.26609e-11 0 0)
(2.29656e-11 0 0)
(1.89046e-11 0 0)
(2.13754e-11 0 0)
(1.66459e-11 0 0)
(1.85188e-11 0 0)
(1.59899e-11 0 0)
(1.88874e-11 0 0)
(1.67451e-11 0 0)
(1.80209e-11 0 0)
(1.28324e-11 0 0)
(1.53107e-11 0 0)
(1.37167e-11 0 0)
(2.19896e-11 0 0)
(3.02843e-11 0 0)
(5.24546e-11 0 0)
(9.45536e-11 0 0)
(1.82569e-10 0 0)
(3.57547e-10 0 0)
(7.05565e-10 0 0)
(1.38668e-09 0 0)
(2.71351e-09 0 0)
(5.27977e-09 0 0)
(1.02036e-08 0 0)
(1.9594e-08 0 0)
(3.73579e-08 0 0)
(7.07374e-08 0 0)
(1.32976e-07 0 0)
(2.48193e-07 0 0)
(4.59852e-07 0 0)
(8.45744e-07 0 0)
(1.5438e-06 0 0)
(2.79665e-06 0 0)
(5.02717e-06 0 0)
(8.96596e-06 0 0)
(1.58636e-05 0 0)
(2.78406e-05 0 0)
(4.84582e-05 0 0)
(8.36378e-05 0 0)
(0.000143125 0 0)
(0.000242793 0 0)
(0.000408213 0 0)
(0.000680125 0 0)
(0.00112268 0 0)
(0.00183568 0 0)
(0.00297247 0 0)
(0.00476555 0 0)
(0.00756266 0 0)
(0.0118764 0 0)
(0.0184509 0 0)
(0.028349 0 0)
(0.0430627 0 0)
(0.0646473 0 0)
(0.0958784 0 0)
(0.140422 0 0)
(0.203004 0 0)
(0.289554 0 0)
(0.407291 0 0)
(0.564691 0 0)
(0.7713 0 0)
(1.03731 0 0)
(1.37281 0 0)
(1.78666 0 0)
(2.2847 0 0)
(2.86729 0 0)
(3.52871 0 0)
(4.2604 0 0)
(5.0546 0 0)
(5.90507 0 0)
(6.80634 0 0)
(7.75328 0 0)
(8.74099 0 0)
(9.76485 0 0)
(10.8206 0 0)
(11.9045 0 0)
(13.013 0 0)
(14.1431 0 0)
(15.2922 0 0)
(16.4581 0 0)
(17.6388 0 0)
(18.8326 0 0)
(20.038 0 0)
(21.2539 0 0)
(22.4792 0 0)
(23.7129 0 0)
(24.9542 0 0)
(26.2024 0 0)
(27.457 0 0)
(28.7173 0 0)
(29.9829 0 0)
(31.2533 0 0)
(32.5283 0 0)
(33.8074 0 0)
(35.0904 0 0)
(36.3769 0 0)
(37.6668 0 0)
(38.9598 0 0)
(40.2557 0 0)
(41.5544 0 0)
(42.8556 0 0)
(44.1592 0 0)
(45.4651 0 0)
(46.7731 0 0)
(48.0832 0 0)
(49.3951 0 0)
(50.7088 0 0)
(52.0242 0 0)
(53.3412 0 0)
(54.6598 0 0)
(55.9797 0 0)
(57.301 0 0)
(58.6236 0 0)
(59.9474 0 0)
(61.2723 0 0)
(62.5983 0 0)
(63.9253 0 0)
(65.2532 0 0)
(66.5821 0 0)
(67.9118 0 0)
(69.2423 0 0)
(70.5735 0 0)
(71.9054 0 0)
(73.238 0 0)
(74.5712 0 0)
(75.9049 0 0)
(77.2391 0 0)
(78.5738 0 0)
(79.9089 0 0)
(81.2444 0 0)
(82.5802 0 0)
(83.9163 0 0)
(85.2527 0 0)
(86.5892 0 0)
(87.926 0 0)
(89.2629 0 0)
(90.5999 0 0)
(91.9369 0 0)
(93.274 0 0)
(94.611 0 0)
(95.948 0 0)
(97.2848 0 0)
(98.6216 0 0)
(99.9581 0 0)
(101.294 0 0)
(102.63 0 0)
(103.966 0 0)
(105.302 0 0)
(106.637 0 0)
(107.971 0 0)
(109.305 0 0)
(110.639 0 0)
(111.972 0 0)
(113.304 0 0)
(114.636 0 0)
(115.967 0 0)
(117.297 0 0)
(118.626 0 0)
(119.955 0 0)
(121.282 0 0)
(122.609 0 0)
(123.934 0 0)
(125.258 0 0)
(126.581 0 0)
(127.903 0 0)
(129.223 0 0)
(130.542 0 0)
(131.86 0 0)
(133.175 0 0)
(134.49 0 0)
(135.802 0 0)
(137.112 0 0)
(138.421 0 0)
(139.727 0 0)
(141.031 0 0)
(142.332 0 0)
(143.632 0 0)
(144.928 0 0)
(146.222 0 0)
(147.513 0 0)
(148.8 0 0)
(150.085 0 0)
(151.365 0 0)
(152.643 0 0)
(153.916 0 0)
(155.185 0 0)
(156.45 0 0)
(157.71 0 0)
(158.965 0 0)
(160.215 0 0)
(161.459 0 0)
(162.698 0 0)
(163.93 0 0)
(165.155 0 0)
(166.374 0 0)
(167.585 0 0)
(168.787 0 0)
(169.981 0 0)
(171.166 0 0)
(172.341 0 0)
(173.506 0 0)
(174.659 0 0)
(175.8 0 0)
(176.929 0 0)
(178.044 0 0)
(179.143 0 0)
(180.227 0 0)
(181.294 0 0)
(182.343 0 0)
(183.373 0 0)
(184.382 0 0)
(185.369 0 0)
(186.331 0 0)
(187.269 0 0)
(188.179 0 0)
(189.06 0 0)
(189.911 0 0)
(190.729 0 0)
(191.512 0 0)
(192.26 0 0)
(192.969 0 0)
(193.638 0 0)
(194.266 0 0)
(194.85 0 0)
(195.391 0 0)
(195.887 0 0)
(196.337 0 0)
(196.742 0 0)
(197.102 0 0)
(197.417 0 0)
(197.69 0 0)
(197.922 0 0)
(198.115 0 0)
(198.274 0 0)
(198.4 0 0)
(198.498 0 0)
(198.571 0 0)
(198.624 0 0)
(198.659 0 0)
(198.68 0 0)
(198.692 0 0)
(198.695 0 0)
(198.696 0 0)
(198.696 0 0)
(198.695 0 0)
(198.692 0 0)
(198.686 0 0)
(198.676 0 0)
(198.662 0 0)
(198.649 0 0)
(198.636 0 0)
(198.624 0 0)
(198.615 0 0)
(198.608 0 0)
(198.602 0 0)
(198.598 0 0)
(198.596 0 0)
(198.594 0 0)
(198.593 0 0)
(198.592 0 0)
(198.591 0 0)
(198.59 0 0)
(198.589 0 0)
(198.588 0 0)
(198.588 0 0)
(198.587 0 0)
(198.586 0 0)
(198.586 0 0)
(198.585 0 0)
(198.585 0 0)
(198.584 0 0)
(198.583 0 0)
(198.583 0 0)
(198.582 0 0)
(198.581 0 0)
(198.581 0 0)
(198.58 0 0)
(198.58 0 0)
(198.579 0 0)
(198.579 0 0)
(198.578 0 0)
(198.577 0 0)
(198.577 0 0)
(198.576 0 0)
(198.576 0 0)
(198.575 0 0)
(198.575 0 0)
(198.574 0 0)
(198.574 0 0)
(198.573 0 0)
(198.573 0 0)
(198.572 0 0)
(198.572 0 0)
(198.571 0 0)
(198.571 0 0)
(198.57 0 0)
(198.57 0 0)
(198.569 0 0)
(198.569 0 0)
(198.568 0 0)
(198.568 0 0)
(198.567 0 0)
(198.567 0 0)
(198.566 0 0)
(198.566 0 0)
(198.565 0 0)
(198.565 0 0)
(198.564 0 0)
(198.564 0 0)
(198.563 0 0)
(198.563 0 0)
(198.562 0 0)
(198.562 0 0)
(198.561 0 0)
(198.561 0 0)
(198.56 0 0)
(198.56 0 0)
(198.559 0 0)
(198.559 0 0)
(198.558 0 0)
(198.558 0 0)
(198.558 0 0)
(198.557 0 0)
(198.557 0 0)
(198.557 0 0)
(198.556 0 0)
(198.556 0 0)
(198.556 0 0)
(198.555 0 0)
(198.555 0 0)
(198.555 0 0)
(198.555 0 0)
(198.554 0 0)
(198.554 0 0)
(198.554 0 0)
(198.554 0 0)
(198.553 0 0)
(198.553 0 0)
(198.553 0 0)
(198.553 0 0)
(198.553 0 0)
(198.553 0 0)
(198.552 0 0)
(198.552 0 0)
(198.552 0 0)
(198.552 0 0)
(198.552 0 0)
(198.552 0 0)
(198.551 0 0)
(198.551 0 0)
(198.551 0 0)
(198.551 0 0)
(198.551 0 0)
(198.55 0 0)
(198.55 0 0)
(198.55 0 0)
(198.55 0 0)
(198.549 0 0)
(198.549 0 0)
(198.549 0 0)
(198.549 0 0)
(198.549 0 0)
(198.548 0 0)
(198.548 0 0)
(198.548 0 0)
(198.548 0 0)
(198.547 0 0)
(198.547 0 0)
(198.547 0 0)
(198.547 0 0)
(198.547 0 0)
(198.546 0 0)
(198.546 0 0)
(198.546 0 0)
(198.546 0 0)
(198.546 0 0)
(198.545 0 0)
(198.545 0 0)
(198.545 0 0)
(198.545 0 0)
(198.545 0 0)
(198.545 0 0)
(198.545 0 0)
(198.544 0 0)
(198.544 0 0)
(198.544 0 0)
(198.544 0 0)
(198.544 0 0)
(198.543 0 0)
(198.543 0 0)
(198.543 0 0)
(198.543 0 0)
(198.543 0 0)
(198.542 0 0)
(198.542 0 0)
(198.542 0 0)
(198.542 0 0)
(198.542 0 0)
(198.541 0 0)
(198.541 0 0)
(198.541 0 0)
(198.541 0 0)
(198.541 0 0)
(198.541 0 0)
(198.541 0 0)
(198.541 0 0)
(198.54 0 0)
(198.54 0 0)
(198.54 0 0)
(198.54 0 0)
(198.54 0 0)
(198.54 0 0)
(198.54 0 0)
(198.54 0 0)
(198.539 0 0)
(198.539 0 0)
(198.538 0 0)
(198.538 0 0)
(198.538 0 0)
(198.536 0 0)
(198.534 0 0)
(198.535 0 0)
(198.541 0 0)
(198.551 0 0)
(198.572 0 0)
(198.633 0 0)
(198.774 0 0)
(198.832 0 0)
(198.727 0 0)
(198.607 0 0)
(198.518 0 0)
(198.473 0 0)
(198.478 0 0)
(198.503 0 0)
(198.511 0 0)
(198.503 0 0)
(198.511 0 0)
(198.537 0 0)
(198.546 0 0)
(198.527 0 0)
(198.517 0 0)
(198.536 0 0)
(198.554 0 0)
(198.538 0 0)
(198.512 0 0)
(198.523 0 0)
(198.554 0 0)
(198.554 0 0)
(198.523 0 0)
(198.512 0 0)
(198.541 0 0)
(198.559 0 0)
(198.536 0 0)
(198.508 0 0)
(198.52 0 0)
(198.549 0 0)
(198.543 0 0)
(198.512 0 0)
(198.507 0 0)
(198.538 0 0)
(198.552 0 0)
(198.525 0 0)
(198.503 0 0)
(198.523 0 0)
(198.551 0 0)
(198.538 0 0)
(198.505 0 0)
(198.51 0 0)
(198.544 0 0)
(198.549 0 0)
(198.517 0 0)
(198.5 0 0)
(198.527 0 0)
(198.553 0 0)
(198.534 0 0)
(198.502 0 0)
(198.51 0 0)
(198.543 0 0)
(198.546 0 0)
(198.513 0 0)
(198.501 0 0)
(198.53 0 0)
(198.55 0 0)
(198.526 0 0)
(198.498 0 0)
(198.515 0 0)
(198.548 0 0)
(198.54 0 0)
(198.504 0 0)
(198.501 0 0)
(198.536 0 0)
(198.55 0 0)
(198.519 0 0)
(198.494 0 0)
(198.517 0 0)
(198.548 0 0)
(198.535 0 0)
(198.5 0 0)
(198.502 0 0)
(198.536 0 0)
(198.545 0 0)
(198.513 0 0)
(198.494 0 0)
(198.52 0 0)
(198.548 0 0)
(198.527 0 0)
(198.493 0 0)
(198.505 0 0)
(198.542 0 0)
(198.54 0 0)
(198.502 0 0)
(198.492 0 0)
(198.526 0 0)
(198.547 0 0)
(198.517 0 0)
(198.486 0 0)
(198.508 0 0)
(198.546 0 0)
(198.534 0 0)
(198.494 0 0)
(198.489 0 0)
(198.527 0 0)
(198.545 0 0)
(198.513 0 0)
(198.484 0 0)
(198.506 0 0)
(198.541 0 0)
(198.528 0 0)
(198.49 0 0)
(198.489 0 0)
(198.526 0 0)
(198.538 0 0)
(198.503 0 0)
(198.479 0 0)
(198.507 0 0)
(198.538 0 0)
(198.519 0 0)
(198.481 0 0)
(198.488 0 0)
(198.526 0 0)
(198.529 0 0)
(198.49 0 0)
(198.473 0 0)
(198.507 0 0)
(198.533 0 0)
(198.503 0 0)
(198.466 0 0)
(198.484 0 0)
(198.524 0 0)
(198.516 0 0)
(198.471 0 0)
(198.462 0 0)
(198.501 0 0)
(198.52 0 0)
(198.484 0 0)
(198.449 0 0)
(198.471 0 0)
(198.509 0 0)
(198.494 0 0)
(198.448 0 0)
(198.444 0 0)
(198.483 0 0)
(198.494 0 0)
(198.453 0 0)
(198.422 0 0)
(198.448 0 0)
(198.48 0 0)
(198.455 0 0)
(198.407 0 0)
(198.408 0 0)
(198.446 0 0)
(198.448 0 0)
(198.399 0 0)
(198.37 0 0)
(198.397 0 0)
(198.422 0 0)
(198.388 0 0)
(198.338 0 0)
(198.34 0 0)
(198.372 0 0)
(198.361 0 0)
(198.306 0 0)
(198.277 0 0)
(198.3 0 0)
(198.312 0 0)
(198.265 0 0)
(198.211 0 0)
(198.21 0 0)
(198.231 0 0)
(198.204 0 0)
(198.14 0 0)
(198.107 0 0)
(198.117 0 0)
(198.11 0 0)
(198.048 0 0)
(197.987 0 0)
(197.973 0 0)
(197.973 0 0)
(197.922 0 0)
(197.843 0 0)
(197.797 0 0)
(197.784 0 0)
(197.745 0 0)
(197.656 0 0)
(197.577 0 0)
(197.536 0 0)
(197.497 0 0)
(197.405 0 0)
(197.288 0 0)
(197.208 0 0)
(197.155 0 0)
(197.065 0 0)
(196.911 0 0)
(196.772 0 0)
(196.682 0 0)
(196.587 0 0)
(196.398 0 0)
(196.173 0 0)
(196.011 0 0)
(195.886 0 0)
(195.67 0 0)
(195.345 0 0)
(195.066 0 0)
(194.866 0 0)
(194.608 0 0)
(194.161 0 0)
(193.679 0 0)
(193.292 0 0)
(192.938 0 0)
(192.366 0 0)
(191.366 0 0)
(189.92 0 0)
(187.561 0 0)
(182.507 0 0)
(167.661 0 0)
(118.362 0 0)
(47.2167 0 0)
(12.7753 0 0)
(3.17791 0 0)
(0.76186 0 0)
(0.180705 0 0)
(0.0427614 0 0)
(0.0101155 0 0)
(0.00239274 0 0)
(0.000565964 0 0)
(0.000133862 0 0)
(3.16601e-05 0 0)
(7.48778e-06 0 0)
(1.77087e-06 0 0)
(4.18806e-07 0 0)
(9.90461e-08 0 0)
(2.34278e-08 0 0)
(5.54413e-09 0 0)
(1.31689e-09 0 0)
(3.15622e-10 0 0)
(8.20421e-11 0 0)
(2.45546e-11 0 0)
(1.2914e-11 0 0)
(9.06128e-12 0 0)
(1.0804e-11 0 0)
(5.8838e-12 0 0)
(1.05662e-11 0 0)
(8.82979e-12 0 0)
(8.61083e-12 0 0)
(9.7357e-12 0 0)
(1.02561e-11 0 0)
(1.27739e-11 0 0)
(1.32015e-11 0 0)
(1.06525e-11 0 0)
(9.13898e-12 0 0)
(9.19439e-12 0 0)
(1.01116e-11 0 0)
(9.95891e-12 0 0)
(1.3109e-11 0 0)
(1.20522e-11 0 0)
(1.10837e-11 0 0)
(1.09656e-11 0 0)
(9.03423e-12 0 0)
(8.60832e-12 0 0)
(6.56576e-12 0 0)
(6.62076e-12 0 0)
(7.25616e-12 0 0)
(1.14073e-11 0 0)
(1.08111e-11 0 0)
(1.32244e-11 0 0)
(1.32975e-11 0 0)
(1.57736e-11 0 0)
(1.60871e-11 0 0)
(1.70846e-11 0 0)
(1.99457e-11 0 0)
(1.79541e-11 0 0)
(1.94737e-11 0 0)
(1.90003e-11 0 0)
(2.10309e-11 0 0)
(2.28016e-11 0 0)
(2.19977e-11 0 0)
(2.30532e-11 0 0)
(2.41861e-11 0 0)
(2.57473e-11 0 0)
(2.47012e-11 0 0)
(2.46385e-11 0 0)
(2.50704e-11 0 0)
(2.63234e-11 0 0)
(2.65126e-11 0 0)
(2.50158e-11 0 0)
(2.48492e-11 0 0)
(2.25696e-11 0 0)
(2.11754e-11 0 0)
(1.97824e-11 0 0)
(1.97802e-11 0 0)
(1.73007e-11 0 0)
(1.61589e-11 0 0)
(1.42461e-11 0 0)
(1.36361e-11 0 0)
(1.47165e-11 0 0)
(1.62847e-11 0 0)
(1.52942e-11 0 0)
(1.86824e-11 0 0)
(1.56391e-11 0 0)
(1.77291e-11 0 0)
(1.86223e-11 0 0)
(2.14217e-11 0 0)
(2.29731e-11 0 0)
(2.49459e-11 0 0)
(2.29413e-11 0 0)
(2.36025e-11 0 0)
(2.40895e-11 0 0)
(2.13953e-11 0 0)
(2.3052e-11 0 0)
(2.33456e-11 0 0)
(2.44356e-11 0 0)
(2.3825e-11 0 0)
(2.4675e-11 0 0)
(2.67422e-11 0 0)
(2.65259e-11 0 0)
(2.37788e-11 0 0)
(2.52948e-11 0 0)
(2.46314e-11 0 0)
(2.70568e-11 0 0)
(2.36175e-11 0 0)
(2.70382e-11 0 0)
(2.65751e-11 0 0)
(2.97455e-11 0 0)
(2.73824e-11 0 0)
(2.78249e-11 0 0)
(2.90085e-11 0 0)
(3.08735e-11 0 0)
(2.97792e-11 0 0)
(2.95265e-11 0 0)
(3.09077e-11 0 0)
(3.29195e-11 0 0)
(3.36185e-11 0 0)
(3.25759e-11 0 0)
(3.32056e-11 0 0)
(3.10987e-11 0 0)
(2.99234e-11 0 0)
(3.0338e-11 0 0)
(2.88132e-11 0 0)
(3.11928e-11 0 0)
(2.94748e-11 0 0)
(3.13911e-11 0 0)
(2.98212e-11 0 0)
(3.13046e-11 0 0)
(2.87576e-11 0 0)
(2.74744e-11 0 0)
(2.75248e-11 0 0)
(2.6168e-11 0 0)
(2.50602e-11 0 0)
(2.50585e-11 0 0)
(2.45018e-11 0 0)
(2.47732e-11 0 0)
(2.50736e-11 0 0)
(2.64025e-11 0 0)
(2.77043e-11 0 0)
(2.5752e-11 0 0)
(2.88172e-11 0 0)
(2.88294e-11 0 0)
(2.8731e-11 0 0)
(2.81304e-11 0 0)
(2.66538e-11 0 0)
(2.46852e-11 0 0)
(2.54242e-11 0 0)
(2.39115e-11 0 0)
(2.52452e-11 0 0)
(2.21037e-11 0 0)
(2.26341e-11 0 0)
(2.18286e-11 0 0)
(2.4526e-11 0 0)
(2.38151e-11 0 0)
(2.38627e-11 0 0)
(2.23778e-11 0 0)
(2.06544e-11 0 0)
(1.87141e-11 0 0)
(1.84819e-11 0 0)
(1.8827e-11 0 0)
(1.75638e-11 0 0)
(1.9997e-11 0 0)
(1.96956e-11 0 0)
(1.99381e-11 0 0)
(1.93514e-11 0 0)
(2.2656e-11 0 0)
(2.2471e-11 0 0)
(2.37321e-11 0 0)
(2.29525e-11 0 0)
(2.57338e-11 0 0)
(2.40908e-11 0 0)
(2.69633e-11 0 0)
(2.48152e-11 0 0)
(2.91783e-11 0 0)
(2.6638e-11 0 0)
(2.70157e-11 0 0)
(2.43261e-11 0 0)
)
;

boundaryField
{
    sides
    {
        type            zeroGradient;
    }
    empty
    {
        type            empty;
    }
}


// ************************************************************************* //
