/*--------------------------------*- C++ -*----------------------------------*\
| =========                 |                                                 |
| \\      /  F ield         | OpenFOAM: The Open Source CFD Toolbox           |
|  \\    /   O peration     | Version:  4.1                                   |
|   \\  /    A nd           | Web:      www.OpenFOAM.org                      |
|    \\/     M anipulation  |                                                 |
\*---------------------------------------------------------------------------*/
FoamFile
{
    version     2.0;
    format      ascii;
    class       volScalarField;
    location    "0.0068";
    object      mag(U);
}
// * * * * * * * * * * * * * * * * * * * * * * * * * * * * * * * * * * * * * //

dimensions      [0 1 -1 0 0 0 0];

internalField   nonuniform List<scalar> 
1000
(
1.52964e-11
1.47075e-11
1.78716e-11
1.66897e-11
1.50879e-11
1.66204e-11
1.84523e-11
1.80001e-11
1.68697e-11
1.63583e-11
1.25827e-11
1.33274e-11
1.05934e-11
1.4001e-11
1.19368e-11
1.25587e-11
1.05486e-11
1.4815e-11
1.25877e-11
1.81696e-11
1.30562e-11
1.60658e-11
1.41748e-11
1.82817e-11
1.6166e-11
1.61731e-11
1.16291e-11
1.31926e-11
1.54455e-11
1.74726e-11
1.95863e-11
1.95566e-11
1.98832e-11
1.94759e-11
2.19669e-11
1.87573e-11
2.30476e-11
2.02908e-11
2.3256e-11
1.89409e-11
1.95292e-11
1.65807e-11
1.78824e-11
1.53496e-11
1.80041e-11
1.29231e-11
1.45906e-11
9.3094e-12
1.06343e-11
3.69663e-12
4.92025e-12
8.923e-13
1.24645e-12
7.85489e-15
2.80076e-12
3.57176e-12
1.00862e-12
8.77883e-13
2.33518e-13
3.7107e-13
3.6798e-12
3.00728e-13
4.97578e-12
8.37205e-13
3.20064e-12
1.98921e-12
6.99857e-12
5.11611e-12
1.05152e-11
4.48573e-12
9.24599e-12
4.99891e-12
5.99736e-12
2.27196e-12
7.5175e-12
3.07478e-12
7.16484e-12
3.55893e-12
7.69736e-12
5.106e-12
5.23318e-12
4.97042e-12
1.04863e-12
4.16111e-12
4.781e-12
8.52286e-12
4.55657e-12
8.69298e-12
4.41242e-12
6.73635e-12
4.07817e-12
9.53383e-12
6.1582e-12
9.6068e-12
6.96084e-12
1.05312e-11
1.12068e-11
1.38293e-11
1.40658e-11
1.71437e-11
1.37515e-11
1.27105e-11
1.3228e-11
1.30238e-11
1.38219e-11
1.41188e-11
1.30399e-11
1.3638e-11
1.25991e-11
1.47632e-11
1.28201e-11
1.01013e-11
9.4416e-12
6.38104e-12
8.4341e-12
7.6083e-12
7.56455e-12
5.71673e-12
8.88868e-12
7.77163e-12
1.04059e-11
1.15152e-11
1.19592e-11
1.25083e-11
1.17116e-11
1.11761e-11
1.09527e-11
1.14009e-11
8.83878e-12
1.1303e-11
1.02605e-11
1.0697e-11
1.23662e-11
1.24775e-11
1.39968e-11
1.44056e-11
1.29702e-11
1.4109e-11
1.30974e-11
1.50143e-11
1.61055e-11
1.5815e-11
1.63409e-11
1.87736e-11
1.9496e-11
2.06894e-11
2.30948e-11
2.16599e-11
2.16118e-11
2.01992e-11
2.03182e-11
2.06932e-11
2.13538e-11
1.79242e-11
1.97638e-11
1.854e-11
1.87754e-11
1.99542e-11
1.76537e-11
1.91076e-11
1.8252e-11
1.82457e-11
1.72774e-11
1.44299e-11
1.40755e-11
1.67793e-11
1.96407e-11
2.44644e-11
3.33631e-11
4.78928e-11
7.53289e-11
1.27715e-10
2.32646e-10
4.37983e-10
8.30882e-10
1.58351e-09
3.00632e-09
5.68543e-09
1.06863e-08
1.99684e-08
3.70732e-08
6.83922e-08
1.25332e-07
2.28154e-07
4.12534e-07
7.40839e-07
1.32122e-06
2.33977e-06
4.11407e-06
7.18167e-06
1.24447e-05
2.14041e-05
3.65352e-05
6.18828e-05
0.000103995
0.000173373
0.000286685
0.000470131
0.000764449
0.0012323
0.00196898
0.00311772
0.00489113
0.00760082
0.0116973
0.0178225
0.0268778
0.0401079
0.0592025
0.0864125
0.124676
0.177746
0.250292
0.347975
0.477436
0.646182
0.862323
1.13411
1.4692
1.87367
2.35036
2.89736
3.50864
4.17709
4.89662
5.66221
6.46942
7.3141
8.19232
9.10043
10.035
10.9931
11.9719
12.969
13.9823
15.0099
16.0503
17.1021
18.164
19.2351
20.3143
21.401
22.4944
23.594
24.6991
25.8094
26.9245
28.0439
29.1673
30.2945
31.4251
32.559
33.6959
34.8356
35.978
37.1229
38.2701
39.4195
40.571
41.7245
42.8798
44.0369
45.1957
46.356
47.5179
48.6811
49.8458
51.0117
52.1788
53.3471
54.5166
55.687
56.8585
58.0309
59.2043
60.3785
61.5535
62.7293
63.9059
65.0831
66.2611
67.4396
68.6188
69.7985
70.9787
72.1594
73.3406
74.5223
75.7043
76.8867
78.0695
79.2526
80.436
81.6196
82.8035
83.9876
85.1719
86.3564
87.5409
88.7256
89.9104
91.0953
92.2801
93.465
94.6499
95.8347
97.0195
98.2041
99.3887
100.573
101.757
102.941
104.125
105.309
106.492
107.675
108.858
110.04
111.222
112.403
113.584
114.765
115.945
117.124
118.303
119.481
120.659
121.836
123.012
124.187
125.362
126.536
127.708
128.88
130.051
131.221
132.389
133.557
134.723
135.888
137.051
138.213
139.374
140.533
141.69
142.846
144
145.152
146.301
147.449
148.595
149.738
150.878
152.017
153.152
154.284
155.414
156.54
157.663
158.782
159.897
161.008
162.116
163.218
164.316
165.409
166.497
167.579
168.655
169.724
170.787
171.843
172.891
173.931
174.962
175.984
176.996
177.997
178.988
179.966
180.931
181.883
182.82
183.742
184.647
185.534
186.402
187.251
188.077
188.881
189.661
190.414
191.141
191.839
192.506
193.142
193.745
194.313
194.846
195.343
195.802
196.223
196.606
196.951
197.258
197.528
197.764
197.965
198.135
198.275
198.388
198.478
198.547
198.598
198.634
198.658
198.671
198.678
198.68
198.68
198.68
198.679
198.676
198.671
198.661
198.65
198.639
198.628
198.619
198.612
198.606
198.601
198.598
198.596
198.594
198.593
198.592
198.591
198.59
198.589
198.589
198.588
198.588
198.587
198.586
198.586
198.585
198.585
198.584
198.583
198.583
198.582
198.582
198.581
198.581
198.58
198.579
198.579
198.578
198.578
198.577
198.577
198.576
198.576
198.575
198.575
198.574
198.574
198.573
198.573
198.572
198.572
198.571
198.571
198.57
198.57
198.569
198.569
198.568
198.568
198.567
198.567
198.566
198.566
198.565
198.565
198.564
198.564
198.564
198.563
198.563
198.562
198.562
198.561
198.561
198.56
198.56
198.56
198.559
198.559
198.559
198.558
198.558
198.558
198.558
198.557
198.557
198.557
198.557
198.557
198.556
198.556
198.556
198.556
198.556
198.555
198.555
198.555
198.555
198.555
198.555
198.554
198.554
198.554
198.554
198.554
198.554
198.554
198.553
198.553
198.553
198.553
198.552
198.552
198.552
198.552
198.552
198.551
198.551
198.551
198.551
198.55
198.55
198.55
198.55
198.55
198.55
198.549
198.549
198.549
198.549
198.549
198.549
198.548
198.548
198.548
198.548
198.548
198.548
198.548
198.548
198.547
198.547
198.547
198.547
198.547
198.546
198.546
198.546
198.546
198.546
198.546
198.545
198.545
198.545
198.545
198.545
198.545
198.545
198.544
198.544
198.544
198.544
198.544
198.544
198.543
198.543
198.543
198.543
198.543
198.543
198.542
198.542
198.542
198.542
198.542
198.542
198.542
198.541
198.541
198.541
198.541
198.541
198.541
198.54
198.54
198.54
198.54
198.54
198.54
198.54
198.54
198.54
198.54
198.54
198.54
198.54
198.539
198.539
198.539
198.539
198.538
198.538
198.537
198.536
198.539
198.545
198.557
198.583
198.654
198.792
198.818
198.683
198.562
198.503
198.495
198.496
198.489
198.492
198.519
198.539
198.53
198.516
198.529
198.551
198.544
198.518
198.518
198.546
198.557
198.532
198.513
198.533
198.56
198.547
198.517
198.519
198.547
198.551
198.521
198.506
198.532
198.554
198.532
198.504
198.517
198.549
198.546
198.514
198.506
198.535
198.553
198.529
198.503
198.519
198.549
198.542
198.51
198.508
198.539
198.55
198.522
198.502
198.525
198.553
198.536
198.503
198.51
198.545
198.549
198.517
198.501
198.528
198.552
198.532
198.503
198.514
198.546
198.544
198.511
198.503
198.534
198.552
198.525
198.498
198.518
198.55
198.54
198.505
198.503
198.536
198.549
198.52
198.497
198.52
198.549
198.533
198.5
198.506
198.541
198.545
198.51
198.496
198.526
198.55
198.526
198.494
198.508
198.543
198.541
198.505
198.496
198.528
198.547
198.52
198.492
198.511
198.545
198.534
198.497
198.497
198.533
198.544
198.51
198.488
198.515
198.546
198.527
198.49
198.497
198.535
198.539
198.503
198.486
198.516
198.542
198.518
198.485
198.499
198.535
198.531
198.492
198.484
198.519
198.538
198.506
198.476
198.499
198.535
198.521
198.48
198.479
198.517
198.53
198.493
198.467
198.494
198.526
198.506
198.466
198.472
198.511
198.513
198.471
198.453
198.487
198.512
198.48
198.441
198.458
198.497
198.486
198.437
198.427
198.466
198.482
198.441
198.403
198.423
198.459
198.44
198.39
198.381
198.415
198.424
198.378
198.341
198.359
198.386
198.357
198.304
198.296
198.325
198.319
198.263
198.227
198.243
198.256
198.209
198.15
198.142
198.16
198.132
198.062
198.023
198.028
198.018
197.952
197.884
197.862
197.856
197.801
197.714
197.658
197.634
197.592
197.497
197.403
197.347
197.302
197.202
197.065
196.963
196.893
196.79
196.61
196.438
196.323
196.216
196.003
195.733
195.534
195.386
195.135
194.739
194.387
194.131
193.833
193.317
192.715
192.118
191.437
190.386
187.951
182.469
168.191
121.989
50.9259
13.7112
3.41187
0.818689
0.194436
0.0460554
0.0108995
0.00257886
0.000610142
0.000144355
3.41534e-05
8.08034e-06
1.91172e-06
4.52298e-07
1.07023e-07
2.53382e-08
6.01288e-09
1.44226e-09
3.6079e-10
1.05064e-10
4.34107e-11
2.97446e-11
2.57219e-11
2.38327e-11
2.3272e-11
2.34991e-11
2.43163e-11
2.40219e-11
2.36261e-11
2.30366e-11
2.43413e-11
2.00381e-11
2.15627e-11
2.19041e-11
2.09558e-11
2.03879e-11
2.1347e-11
2.25041e-11
2.54154e-11
2.49626e-11
2.72321e-11
2.70405e-11
2.82669e-11
2.86437e-11
3.07797e-11
2.94278e-11
3.04618e-11
3.11627e-11
2.79875e-11
2.77982e-11
2.65597e-11
2.71557e-11
2.69064e-11
2.67898e-11
2.62332e-11
2.68484e-11
2.60027e-11
2.91278e-11
2.79634e-11
2.91258e-11
2.68647e-11
2.98495e-11
2.71504e-11
2.71324e-11
2.52267e-11
2.62348e-11
2.62276e-11
2.8839e-11
2.74581e-11
2.67372e-11
2.6546e-11
2.89114e-11
3.02176e-11
2.89464e-11
2.83263e-11
2.60821e-11
2.42473e-11
2.41692e-11
2.35386e-11
2.51279e-11
2.29454e-11
2.28034e-11
2.05201e-11
2.2927e-11
2.13232e-11
2.147e-11
2.22266e-11
2.24223e-11
2.33502e-11
2.17293e-11
2.03642e-11
2.02462e-11
2.10564e-11
1.96472e-11
2.0282e-11
1.96671e-11
2.18602e-11
2.30286e-11
2.45966e-11
2.40567e-11
2.3537e-11
2.09818e-11
2.21151e-11
2.08011e-11
2.22117e-11
2.24177e-11
2.06325e-11
2.01091e-11
2.36729e-11
2.1952e-11
2.20791e-11
2.21455e-11
2.11177e-11
1.92512e-11
1.83499e-11
1.76602e-11
1.7718e-11
2.13624e-11
2.28678e-11
2.375e-11
2.19085e-11
2.32559e-11
2.04646e-11
2.23744e-11
2.09503e-11
2.2858e-11
2.26718e-11
2.47296e-11
2.26992e-11
2.79224e-11
2.55517e-11
2.7936e-11
2.72891e-11
)
;

boundaryField
{
    sides
    {
        type            calculated;
        value           nonuniform List<scalar> 2(2.72891e-11 1.52964e-11);
    }
    empty
    {
        type            empty;
    }
}


// ************************************************************************* //
