/*--------------------------------*- C++ -*----------------------------------*\
| =========                 |                                                 |
| \\      /  F ield         | OpenFOAM: The Open Source CFD Toolbox           |
|  \\    /   O peration     | Version:  4.1                                   |
|   \\  /    A nd           | Web:      www.OpenFOAM.org                      |
|    \\/     M anipulation  |                                                 |
\*---------------------------------------------------------------------------*/
FoamFile
{
    version     2.0;
    format      ascii;
    class       volScalarField;
    location    "0.0068";
    object      p;
}
// * * * * * * * * * * * * * * * * * * * * * * * * * * * * * * * * * * * * * //

dimensions      [1 -1 -2 0 0 0 0];

internalField   nonuniform List<scalar> 
1000
(
100000
100000
100000
100000
100000
100000
100000
100000
100000
100000
100000
100000
100000
100000
100000
100000
100000
100000
100000
100000
100000
100000
100000
100000
100000
100000
100000
100000
100000
100000
100000
100000
100000
100000
100000
100000
100000
100000
100000
100000
100000
100000
100000
100000
100000
100000
100000
100000
100000
100000
100000
100000
100000
100000
100000
100000
100000
100000
100000
100000
100000
100000
100000
100000
100000
100000
100000
100000
100000
100000
100000
100000
100000
100000
100000
100000
100000
100000
100000
100000
100000
100000
100000
100000
100000
100000
100000
100000
100000
100000
100000
100000
100000
100000
100000
100000
100000
100000
100000
100000
100000
100000
100000
100000
100000
100000
100000
100000
100000
100000
100000
100000
100000
100000
100000
100000
100000
100000
100000
100000
100000
100000
100000
100000
100000
100000
100000
100000
100000
100000
100000
100000
100000
100000
100000
100000
100000
100000
100000
100000
100000
100000
100000
100000
100000
100000
100000
100000
100000
100000
100000
100000
100000
100000
100000
100000
100000
100000
100000
100000
100000
100000
100000
100000
100000
100000
100000
100000
100000
100000
100000
100000
100000
100000
100000
100000
100000
100000
100000
100000
100000
100000
100000
100000
100000
100000
100000
100000
100000
100000
100000
100000
100000
100000
100000
99999.9
99999.9
99999.8
99999.7
99999.6
99999.3
99998.9
99998.3
99997.4
99996
99993.8
99990.7
99986.1
99979.5
99970.1
99956.8
99938.4
99913.2
99879.3
99834.3
99775.6
99700.5
99606
99489.4
99348.7
99182.8
98992.4
98780.1
98548.6
98300
98036.3
97758.9
97469.4
97169.3
96859.9
96542.4
96217.9
95887.5
95551.9
95211.9
94868.2
94521.3
94171.9
93820.2
93466.7
93111.6
92755.3
92398
92039.9
91681.2
91322.1
90962.7
90603.1
90243.5
89883.9
89524.5
89165.3
88806.4
88447.9
88089.8
87732.2
87375.1
87018.6
86662.7
86307.5
85952.9
85599.1
85246
84893.7
84542.2
84191.6
83841.8
83492.8
83144.8
82797.6
82451.4
82106.1
81761.8
81418.4
81076
80734.6
80394.2
80054.8
79716.4
79379
79042.7
78707.4
78373.2
78040.1
77708
77376.9
77047
76718.1
76390.4
76063.7
75738.1
75413.7
75090.3
74768.1
74447
74127
73808.1
73490.4
73173.8
72858.4
72544.1
72230.9
71918.9
71608
71298.3
70989.8
70682.4
70376.2
70071.1
69767.2
69464.5
69163
68862.6
68563.4
68265.4
67968.6
67673
67378.5
67085.3
66793.2
66502.4
66212.8
65924.3
65637.1
65351.1
65066.3
64782.7
64500.4
64219.3
63939.4
63660.7
63383.3
63107.2
62832.3
62558.7
62286.3
62015.2
61745.4
61476.9
61209.6
60943.7
60679.1
60415.8
60153.9
59893.3
59634
59376.1
59119.6
58864.5
58610.8
58358.5
58107.7
57858.4
57610.5
57364.1
57119.2
56875.9
56634.2
56394.1
56155.6
55918.7
55683.6
55450.2
55218.6
54988.7
54760.8
54534.8
54310.7
54088.6
53868.6
53650.8
53435.1
53221.8
53010.8
52802.4
52596.4
52393.1
52192.5
51995
51800.3
51608.9
51420.5
51235.9
51054.7
50877.4
50704
50534.7
50369.9
50209.6
50054.2
49903.8
49758.6
49619.1
49485.3
49357.6
49236.1
49121.1
49012.9
48911.5
48817.2
48730.1
48650.2
48577.6
48512.2
48454
48402.6
48358
48319.6
48287.5
48260.7
48238.9
48221.8
48208.5
48198.7
48191.7
48187.1
48184.4
48183
48182.7
48182.7
48182.8
48183
48183.4
48184.2
48185.7
48187.8
48189.9
48191.8
48193.5
48194.9
48196
48196.8
48197.4
48197.9
48198.2
48198.5
48198.7
48198.9
48199
48199.1
48199.2
48199.3
48199.4
48199.5
48199.6
48199.7
48199.8
48199.9
48200
48200.1
48200.2
48200.3
48200.4
48200.5
48200.6
48200.7
48200.8
48200.9
48200.9
48201
48201.1
48201.2
48201.3
48201.4
48201.5
48201.6
48201.6
48201.7
48201.8
48201.9
48202
48202
48202.1
48202.2
48202.3
48202.3
48202.4
48202.5
48202.6
48202.7
48202.8
48202.8
48202.9
48203
48203.1
48203.1
48203.2
48203.3
48203.4
48203.4
48203.5
48203.6
48203.7
48203.7
48203.8
48203.8
48203.9
48203.9
48204
48204
48204.1
48204.1
48204.2
48204.2
48204.2
48204.3
48204.3
48204.3
48204.4
48204.4
48204.4
48204.4
48204.5
48204.5
48204.5
48204.5
48204.5
48204.5
48204.5
48204.6
48204.6
48204.6
48204.6
48204.6
48204.6
48204.6
48204.7
48204.7
48204.7
48204.7
48204.7
48204.8
48204.8
48204.8
48204.8
48204.9
48204.9
48204.9
48204.9
48204.9
48205
48205
48205
48205
48205
48205.1
48205.1
48205.1
48205.1
48205.1
48205.1
48205.2
48205.2
48205.2
48205.2
48205.2
48205.2
48205.3
48205.3
48205.3
48205.3
48205.3
48205.3
48205.3
48205.3
48205.3
48205.3
48205.3
48205.3
48205.3
48205.3
48205.3
48205.3
48205.3
48205.3
48205.4
48205.5
48205.5
48205.5
48205.4
48205.4
48205.4
48205.5
48205.5
48205.5
48205.5
48205.5
48205.5
48205.5
48205.5
48205.5
48205.5
48205.5
48205.5
48205.5
48205.6
48205.6
48205.6
48205.5
48205.5
48205.6
48205.6
48205.6
48205.6
48205.5
48205.6
48205.6
48205.6
48205.5
48205.5
48205.5
48205.5
48205.5
48205.5
48205.5
48205.5
48205.5
48205.5
48205.5
48205.5
48205.5
48205.5
48205.6
48205.7
48205.8
48205.7
48205.6
48206.2
48207.6
48212
48213.9
48202.8
48200.9
48195.8
48200.3
48210.6
48211.2
48201.7
48200
48209.4
48213.2
48204.8
48198.3
48204.7
48214
48209.2
48197.3
48198.7
48212.8
48215.1
48201.4
48195.4
48206.7
48216.2
48208.7
48196.3
48199.3
48214.1
48214.3
48198.6
48195
48209.6
48216.6
48204.7
48194.4
48202.6
48215.6
48212.4
48197
48196
48211.4
48216.3
48203.3
48194.5
48203.8
48215.7
48210.7
48195.9
48197.4
48213.3
48215.4
48199.9
48194.3
48207.7
48216.9
48207.2
48194.3
48199.4
48215.4
48214.9
48198
48194.4
48209.2
48216.6
48205.5
48194.5
48201.4
48215.6
48212.9
48196.2
48195.3
48212.2
48216.9
48201.7
48193.2
48204.8
48216.9
48210.3
48194.7
48196.5
48213.7
48216
48199.8
48193.5
48206.9
48216.8
48207.4
48193.8
48198.8
48215.4
48214.5
48196.5
48193.5
48210.4
48217.4
48203.8
48192.7
48201.2
48216.1
48212.9
48195.2
48194.1
48211.7
48216.8
48201.3
48192.3
48203.9
48216.8
48209.8
48193.3
48195.7
48214.1
48215.9
48197.7
48191.6
48207.3
48217.5
48206.2
48191.8
48197.5
48215.3
48214.6
48195.6
48191.9
48208.9
48216.9
48203.3
48191.1
48200
48216
48211.8
48192.6
48192.3
48212
48216.6
48198.7
48189.5
48203
48216.7
48208.5
48190.5
48193
48213
48215.1
48195.7
48188.7
48204.4
48215.9
48204.4
48188.5
48194.2
48213.5
48212.2
48190.9
48187.3
48206.7
48214.9
48197.8
48184.7
48195.9
48213.3
48206.8
48185.1
48185.2
48206.9
48211.7
48190.8
48180.3
48193.9
48209.2
48200
48179.9
48181
48201.4
48204.3
48182.6
48174.1
48188.3
48201
48188.1
48170.2
48173.2
48192.1
48191.3
48167.5
48161.8
48177.1
48186.5
48167.5
48152.9
48158.1
48174.4
48167.3
48143.2
48140
48154.1
48159.2
48134.8
48123.7
48127.1
48139.3
48126.4
48104.2
48100.5
48107.1
48108.9
48079.8
48068.4
48066.9
48073.7
48053.6
48024.6
48018.4
48022.2
48020.1
47971.6
47953.2
47949.3
47957.8
47910.1
47859.6
47847
47853.1
47833.2
47732.1
47701
47694.1
47699.4
47558.6
47467.1
47432.6
47426.8
47322.2
46831.3
46205
44618.3
38588.1
29103.8
26131.4
25278.5
25066.6
25015.8
25003.7
25000.9
25000.2
25000
25000
25000
25000
25000
25000
25000
25000
25000
25000
25000
25000
25000
25000
25000
25000
25000
25000
25000
25000
25000
25000
25000
25000
25000
25000
25000
25000
25000
25000
25000
25000
25000
25000
25000
25000
25000
25000
25000
25000
25000
25000
25000
25000
25000
25000
25000
25000
25000
25000
25000
25000
25000
25000
25000
25000
25000
25000
25000
25000
25000
25000
25000
25000
25000
25000
25000
25000
25000
25000
25000
25000
25000
25000
25000
25000
25000
25000
25000
25000
25000
25000
25000
25000
25000
25000
25000
25000
25000
25000
25000
25000
25000
25000
25000
25000
25000
25000
25000
25000
25000
25000
25000
25000
25000
25000
25000
25000
25000
25000
25000
25000
25000
25000
25000
25000
25000
25000
25000
25000
25000
25000
25000
25000
25000
)
;

boundaryField
{
    sides
    {
        type            zeroGradient;
    }
    empty
    {
        type            empty;
    }
}


// ************************************************************************* //
