/*--------------------------------*- C++ -*----------------------------------*\
| =========                 |                                                 |
| \\      /  F ield         | OpenFOAM: The Open Source CFD Toolbox           |
|  \\    /   O peration     | Version:  4.1                                   |
|   \\  /    A nd           | Web:      www.OpenFOAM.org                      |
|    \\/     M anipulation  |                                                 |
\*---------------------------------------------------------------------------*/
FoamFile
{
    version     2.0;
    format      ascii;
    class       surfaceScalarField;
    location    "0.0068";
    object      phi;
}
// * * * * * * * * * * * * * * * * * * * * * * * * * * * * * * * * * * * * * //

dimensions      [1 0 -1 0 0 0 0];

internalField   nonuniform List<scalar> 
999
(
-5.08464e-11
-5.53939e-11
-6.19806e-11
-5.56568e-11
-5.41363e-11
-6.00835e-11
-6.59455e-11
-5.93161e-11
-5.73834e-11
-5.11093e-11
-4.421e-11
-4.26539e-11
-4.12328e-11
-4.73577e-11
-4.06715e-11
-4.0437e-11
-4.35989e-11
-4.79474e-11
-5.44205e-11
-5.45626e-11
-4.93543e-11
-5.32125e-11
-5.56284e-11
-6.09006e-11
-5.63105e-11
-4.91625e-11
-4.12825e-11
-4.98304e-11
-5.74829e-11
-6.672e-11
-6.56541e-11
-7.09832e-11
-6.67626e-11
-7.20917e-11
-7.00098e-11
-7.31859e-11
-7.49623e-11
-7.61489e-11
-7.43725e-11
-6.6791e-11
-6.1867e-11
-6.15969e-11
-5.53726e-11
-5.96145e-11
-5.33547e-11
-4.75637e-11
-4.17799e-11
-3.6394e-11
-2.32347e-11
-1.54756e-11
-6.942e-12
-5.82645e-13
-2.359e-12
5.15854e-12
1.12124e-11
4.28457e-12
-2.94165e-12
-1.12976e-12
7.88702e-13
7.77334e-12
6.43752e-12
7.08411e-12
8.18545e-12
3.63087e-12
8.99547e-12
1.61364e-11
2.07763e-11
2.79883e-11
2.60698e-11
2.34053e-11
2.35758e-11
2.02789e-11
1.39551e-11
1.58664e-11
1.93907e-11
1.88365e-11
1.74509e-11
2.05844e-11
2.09539e-11
1.95328e-11
1.77991e-11
9.62075e-12
8.93863e-12
1.65841e-11
2.34692e-11
2.18421e-11
2.22968e-11
2.40234e-11
2.02434e-11
1.79057e-11
2.2979e-11
2.83862e-11
2.5949e-11
2.98428e-11
3.04823e-11
3.75167e-11
4.19504e-11
5.01714e-11
5.43636e-11
5.37383e-11
4.57732e-11
4.40821e-11
4.65761e-11
4.68603e-11
4.77556e-11
4.7315e-11
4.60574e-11
4.59366e-11
4.81748e-11
4.73364e-11
3.99751e-11
3.34595e-11
2.79954e-11
2.54943e-11
2.87059e-11
2.51461e-11
2.37321e-11
2.54374e-11
2.95941e-11
3.13136e-11
3.70761e-11
4.28315e-11
4.06715e-11
4.3002e-11
3.87104e-11
3.89733e-11
3.90585e-11
3.54206e-11
3.37721e-11
3.90159e-11
3.56692e-11
3.97691e-11
4.30163e-11
4.66827e-11
4.80753e-11
4.81677e-11
4.68674e-11
4.74003e-11
4.83524e-11
5.47971e-11
5.46265e-11
5.54863e-11
6.17462e-11
6.66276e-11
6.85745e-11
7.70584e-11
7.80815e-11
7.43867e-11
7.34417e-11
6.96545e-11
7.14309e-11
7.35128e-11
6.92282e-11
6.58389e-11
6.50147e-11
6.60876e-11
6.59242e-11
6.76366e-11
6.28333e-11
6.36788e-11
6.4631e-11
6.13198e-11
5.63389e-11
4.77982e-11
5.30349e-11
6.26059e-11
7.49552e-11
9.88365e-11
1.36893e-10
2.06967e-10
3.39348e-10
6.01403e-10
1.11832e-09
2.11946e-09
4.03249e-09
7.67132e-09
1.45344e-08
2.73948e-08
5.13277e-08
9.55697e-08
1.76816e-07
3.24997e-07
5.93407e-07
1.07625e-06
1.93878e-06
3.46858e-06
6.16231e-06
1.08708e-05
1.90396e-05
3.31044e-05
5.71341e-05
9.78666e-05
0.00016636
0.000280594
0.000469532
0.000779371
0.00128307
0.00209464
0.00339039
0.0054399
0.00865064
0.0136312
0.0212789
0.0328999
0.0503687
0.0763362
0.114493
0.169893
0.24933
0.361764
0.51876
0.734899
1.02809
1.41967
1.93422
2.59889
3.44218
4.49186
5.77214
7.29937
9.07562
11.0822
13.2901
15.6735
18.2121
20.8883
23.6862
26.5906
29.5873
32.6631
35.8062
39.0059
42.2528
45.5386
48.8561
52.1992
55.5623
58.9408
62.3308
65.7288
69.1316
72.5368
75.942
79.3452
82.7448
86.1391
89.5269
92.9068
96.2779
99.6393
102.99
106.329
109.657
112.971
116.273
119.561
122.834
126.094
129.338
132.567
135.781
138.978
142.16
145.326
148.475
151.607
154.723
157.822
160.903
163.968
167.015
170.044
173.056
176.051
179.028
181.986
184.927
187.851
190.756
193.643
196.512
199.363
202.196
205.01
207.807
210.585
213.345
216.087
218.811
221.516
224.203
226.872
229.523
232.155
234.769
237.365
239.943
242.502
245.043
247.566
250.071
252.557
255.026
257.476
259.908
262.322
264.718
267.096
269.456
271.798
274.122
276.428
278.716
280.986
283.239
285.473
287.69
289.889
292.07
294.233
296.379
298.507
300.617
302.71
304.785
306.843
308.883
310.905
312.911
314.898
316.868
318.821
320.756
322.674
324.575
326.458
328.324
330.173
332.005
333.819
335.616
337.395
339.158
340.903
342.631
344.341
346.034
347.71
349.369
351.011
352.635
354.241
355.831
357.402
358.957
360.494
362.013
363.514
364.998
366.464
367.912
369.341
370.753
372.147
373.521
374.878
376.215
377.534
378.834
380.113
381.374
382.614
383.836
385.033
386.216
387.367
388.511
389.615
390.718
391.774
392.827
393.845
394.832
395.821
396.736
397.685
398.546
399.419
400.257
401.029
401.835
402.54
403.252
403.94
404.536
405.17
405.718
406.225
406.748
407.166
407.58
407.977
408.282
408.595
408.869
409.074
409.285
409.457
409.579
409.7
409.794
409.853
409.907
409.949
409.97
409.982
409.994
409.997
409.993
409.991
409.99
409.989
409.983
409.973
409.967
409.958
409.946
409.938
409.93
409.923
409.918
409.914
409.91
409.909
409.907
409.905
409.904
409.902
409.901
409.899
409.898
409.897
409.895
409.894
409.893
409.892
409.89
409.889
409.888
409.886
409.885
409.884
409.883
409.882
409.88
409.879
409.877
409.876
409.875
409.873
409.872
409.871
409.869
409.868
409.867
409.865
409.864
409.863
409.861
409.86
409.859
409.857
409.856
409.854
409.853
409.851
409.85
409.848
409.847
409.845
409.844
409.843
409.841
409.839
409.838
409.836
409.834
409.833
409.832
409.83
409.828
409.826
409.825
409.823
409.822
409.82
409.818
409.816
409.815
409.813
409.811
409.81
409.808
409.806
409.805
409.803
409.801
409.799
409.798
409.796
409.795
409.792
409.79
409.789
409.787
409.785
409.783
409.781
409.78
409.777
409.775
409.773
409.772
409.769
409.767
409.764
409.763
409.761
409.758
409.755
409.753
409.751
409.748
409.745
409.742
409.74
409.738
409.734
409.731
409.729
409.727
409.724
409.72
409.716
409.714
409.712
409.708
409.704
409.7
409.697
409.695
409.692
409.687
409.682
409.679
409.677
409.674
409.67
409.664
409.659
409.655
409.652
409.649
409.643
409.636
409.63
409.626
409.623
409.619
409.613
409.604
409.596
409.589
409.584
409.582
409.581
409.574
409.564
409.549
409.539
409.536
409.535
409.53
409.52
409.505
409.492
409.482
409.476
409.472
409.466
409.455
409.437
409.419
409.402
409.392
409.39
409.385
409.371
409.347
409.322
409.299
409.283
409.274
409.267
409.257
409.238
409.199
409.155
409.113
409.081
409.061
409.051
409.044
409.032
409.005
408.918
408.807
408.7
408.611
408.549
408.515
408.498
408.494
408.517
408.642
408.784
408.863
408.854
408.707
407.055
398.56
377.892
357.763
339.954
325.138
312.678
302.477
294.439
288.54
284.202
280.824
278.201
276.534
275.661
274.909
274.07
273.647
273.708
273.74
273.492
273.173
273.208
273.538
273.539
273.17
273.101
273.436
273.571
273.317
273.091
273.253
273.562
273.501
273.13
273.117
273.514
273.593
273.243
273.099
273.33
273.579
273.481
273.14
273.147
273.532
273.593
273.211
273.103
273.416
273.6
273.405
273.124
273.221
273.578
273.578
273.166
273.103
273.511
273.633
273.342
273.118
273.272
273.589
273.551
273.172
273.138
273.542
273.628
273.272
273.112
273.363
273.625
273.492
273.139
273.171
273.583
273.632
273.208
273.105
273.44
273.632
273.439
273.138
273.218
273.596
273.605
273.18
273.112
273.529
273.654
273.332
273.111
273.305
273.631
273.56
273.154
273.129
273.571
273.659
273.271
273.107
273.363
273.64
273.51
273.139
273.166
273.597
273.648
273.199
273.092
273.468
273.664
273.418
273.107
273.226
273.629
273.621
273.159
273.089
273.54
273.673
273.343
273.1
273.279
273.634
273.573
273.141
273.114
273.584
273.673
273.239
273.075
273.379
273.664
273.494
273.099
273.146
273.614
273.661
273.164
273.054
273.455
273.67
273.419
273.078
273.184
273.62
273.619
273.124
273.049
273.528
273.675
273.288
273.031
273.26
273.646
273.537
273.054
273.046
273.578
273.669
273.133
272.97
273.333
273.647
273.428
272.991
273.033
273.546
273.608
273.053
272.927
273.309
273.578
273.304
272.923
272.997
273.468
273.485
272.934
272.841
273.266
273.476
273.068
272.786
272.924
273.345
273.256
272.734
272.68
273.13
273.272
272.7
272.549
272.726
273.081
272.85
272.418
272.401
272.759
272.851
272.246
272.166
272.264
272.56
272.237
271.847
271.854
272.052
272.169
271.384
271.294
271.37
271.709
271.041
270.508
270.537
270.863
270.875
269.495
269.373
269.58
270.171
268.369
267.639
267.736
268.487
267.769
265.134
264.927
265.368
266.243
261.457
253.574
244.288
218.657
83.9614
26.3011
6.67754
1.60988
0.382958
0.0907517
0.0214822
0.00508308
0.00120262
0.000284531
6.7318e-05
1.59269e-05
3.76814e-06
8.915e-07
2.10927e-07
4.99163e-08
1.1824e-08
2.81277e-09
6.81379e-10
1.77105e-10
5.75042e-11
2.95373e-11
2.37286e-11
2.12843e-11
2.03357e-11
2.01084e-11
2.05844e-11
2.13305e-11
2.04476e-11
2.07354e-11
2.06146e-11
1.91793e-11
1.77369e-11
1.93303e-11
1.82805e-11
1.8197e-11
1.79234e-11
1.91065e-11
2.08988e-11
2.22453e-11
2.20428e-11
2.35687e-11
2.43983e-11
2.4647e-11
2.59011e-11
2.5981e-11
2.63078e-11
2.6672e-11
2.5878e-11
2.43592e-11
2.32525e-11
2.37463e-11
2.35598e-11
2.34195e-11
2.3185e-11
2.24993e-11
2.30447e-11
2.41833e-11
2.47198e-11
2.48139e-11
2.45688e-11
2.42473e-11
2.51212e-11
2.36273e-11
2.24905e-11
2.21654e-11
2.26059e-11
2.46683e-11
2.40643e-11
2.37321e-11
2.29896e-11
2.39488e-11
2.58158e-11
2.57483e-11
2.50182e-11
2.3606e-11
2.1938e-11
2.08953e-11
2.08704e-11
2.11049e-11
2.10321e-11
1.96252e-11
1.88596e-11
1.90781e-11
1.91829e-11
1.88258e-11
1.8753e-11
1.9126e-11
1.99236e-11
2.00995e-11
1.80354e-11
1.75095e-11
1.82538e-11
1.73017e-11
1.74776e-11
1.77742e-11
1.76854e-11
1.91562e-11
2.07212e-11
2.16964e-11
2.02274e-11
1.9833e-11
1.84723e-11
1.86127e-11
1.85345e-11
1.96341e-11
1.87512e-11
1.74207e-11
1.92859e-11
1.97655e-11
1.89608e-11
1.97424e-11
1.84457e-11
1.75167e-11
1.65397e-11
1.53815e-11
1.55218e-11
1.67351e-11
1.9142e-11
2.07461e-11
1.95346e-11
1.93889e-11
1.94564e-11
1.80354e-11
1.90745e-11
1.89697e-11
1.99094e-11
2.04565e-11
2.07994e-11
2.14797e-11
2.38849e-11
2.28635e-11
2.44196e-11
)
;

boundaryField
{
    sides
    {
        type            calculated;
        value           nonuniform List<scalar> 2(2.36857e-11 5.32322e-11);
    }
    empty
    {
        type            empty;
        value           nonuniform 0();
    }
}


// ************************************************************************* //
