/*--------------------------------*- C++ -*----------------------------------*\
| =========                 |                                                 |
| \\      /  F ield         | OpenFOAM: The Open Source CFD Toolbox           |
|  \\    /   O peration     | Version:  4.1                                   |
|   \\  /    A nd           | Web:      www.OpenFOAM.org                      |
|    \\/     M anipulation  |                                                 |
\*---------------------------------------------------------------------------*/
FoamFile
{
    version     2.0;
    format      ascii;
    class       volScalarField;
    location    "0.0068";
    object      T;
}
// * * * * * * * * * * * * * * * * * * * * * * * * * * * * * * * * * * * * * //

dimensions      [0 0 0 1 0 0 0];

internalField   nonuniform List<scalar> 
1000
(
400
400
400
400
400
400
400
400
400
400
400
400
400
400
400
400
400
400
400
400
400
400
400
400
400
400
400
400
400
400
400
400
400
400
400
400
400
400
400
400
400
400
400
400
400
400
400
400
400
400
400
400
400
400
400
400
400
400
400
400
400
400
400
400
400
400
400
400
400
400
400
400
400
400
400
400
400
400
400
400
400
400
400
400
400
400
400
400
400
400
400
400
400
400
400
400
400
400
400
400
400
400
400
400
400
400
400
400
400
400
400
400
400
400
400
400
400
400
400
400
400
400
400
400
400
400
400
400
400
400
400
400
400
400
400
400
400
400
400
400
400
400
400
400
400
400
400
400
400
400
400
400
400
400
400
400
400
400
400
400
400
400
400
400
400
400
400
400
400
400
400
400
400
400
400
400
400
400
400
400
400
400
400
400
400
400
400
400
400
400
400
400
400
400
400
400
400
400
400
400
399.999
399.999
399.998
399.997
399.995
399.993
399.989
399.984
399.977
399.966
399.951
399.929
399.901
399.862
399.81
399.743
399.657
399.548
399.414
399.253
399.062
398.842
398.597
398.33
398.042
397.736
397.413
397.076
396.726
396.364
395.992
395.61
395.221
394.825
394.422
394.014
393.601
393.184
392.763
392.339
391.912
391.482
391.05
390.616
390.18
389.742
389.302
388.861
388.419
387.975
387.531
387.085
386.638
386.191
385.743
385.294
384.845
384.395
383.944
383.493
383.042
382.59
382.137
381.685
381.232
380.779
380.325
379.872
379.418
378.964
378.509
378.055
377.601
377.146
376.692
376.237
375.782
375.327
374.873
374.418
373.963
373.509
373.054
372.599
372.145
371.691
371.236
370.782
370.328
369.874
369.42
368.967
368.513
368.06
367.607
367.154
366.701
366.249
365.796
365.344
364.892
364.441
363.99
363.539
363.088
362.637
362.187
361.737
361.288
360.839
360.39
359.941
359.493
359.046
358.598
358.151
357.705
357.259
356.813
356.367
355.923
355.478
355.034
354.591
354.148
353.705
353.264
352.822
352.381
351.941
351.501
351.062
350.624
350.186
349.749
349.312
348.876
348.441
348.007
347.573
347.14
346.708
346.277
345.846
345.417
344.988
344.561
344.134
343.708
343.284
342.86
342.438
342.017
341.597
341.178
340.76
340.344
339.93
339.517
339.105
338.695
338.287
337.881
337.476
337.074
336.674
336.275
335.879
335.486
335.095
334.708
334.32
333.942
333.556
333.192
332.801
332.462
332.054
331.756
331.319
331.069
330.609
330.387
329.949
329.693
329.348
329.004
328.773
328.378
328.171
327.853
327.556
327.37
327.029
326.848
326.621
326.345
326.221
325.979
325.793
325.685
325.473
325.359
325.263
325.104
325.037
324.964
324.859
324.821
324.778
324.716
324.697
324.679
324.649
324.64
324.638
324.63
324.626
324.627
324.629
324.629
324.629
324.631
324.633
324.637
324.64
324.646
324.65
324.652
324.657
324.659
324.66
324.663
324.664
324.664
324.666
324.667
324.667
324.668
324.669
324.669
324.67
324.671
324.672
324.672
324.673
324.674
324.674
324.675
324.676
324.676
324.677
324.678
324.679
324.679
324.68
324.681
324.682
324.682
324.683
324.684
324.685
324.686
324.686
324.687
324.688
324.689
324.689
324.69
324.692
324.692
324.693
324.694
324.695
324.696
324.696
324.698
324.698
324.699
324.7
324.701
324.702
324.703
324.704
324.705
324.706
324.707
324.708
324.709
324.71
324.711
324.712
324.713
324.714
324.715
324.716
324.717
324.718
324.719
324.72
324.722
324.723
324.724
324.725
324.726
324.727
324.728
324.73
324.731
324.732
324.733
324.735
324.736
324.737
324.738
324.74
324.741
324.743
324.743
324.745
324.747
324.749
324.749
324.751
324.753
324.755
324.756
324.757
324.759
324.761
324.763
324.764
324.765
324.768
324.77
324.772
324.773
324.775
324.778
324.78
324.781
324.783
324.786
324.789
324.791
324.792
324.794
324.797
324.801
324.803
324.804
324.806
324.809
324.813
324.817
324.819
324.82
324.823
324.827
324.832
324.835
324.837
324.839
324.842
324.847
324.853
324.857
324.859
324.86
324.864
324.869
324.876
324.882
324.886
324.888
324.89
324.894
324.902
324.911
324.918
324.923
324.925
324.928
324.932
324.943
324.954
324.964
324.97
324.973
324.976
324.981
324.994
325.009
325.023
325.033
325.038
325.041
325.046
325.06
325.081
325.102
325.118
325.128
325.132
325.137
325.146
325.171
325.206
325.241
325.271
325.291
325.302
325.308
325.313
325.326
325.367
325.453
325.542
325.621
325.682
325.721
325.74
325.744
325.736
325.68
325.568
325.483
325.44
325.462
326.001
329.58
342.484
362.031
381.749
400.719
418.157
433.478
446.405
456.954
465.296
471.658
476.345
479.727
482.139
483.817
484.915
485.608
486.08
486.42
486.61
486.68
486.725
486.792
486.84
486.831
486.792
486.795
486.84
486.842
486.792
486.774
486.812
486.835
486.801
486.762
486.779
486.819
486.813
486.761
486.751
486.795
486.811
486.773
486.74
486.76
486.798
486.787
486.736
486.734
486.781
486.79
486.743
486.72
486.754
486.784
486.759
486.713
486.721
486.771
486.773
486.72
486.703
486.744
486.769
486.739
486.7
486.713
486.759
486.755
486.701
486.692
486.742
486.759
486.716
486.685
486.713
486.753
486.739
486.686
486.685
486.738
486.748
486.7
486.676
486.71
486.744
486.721
486.674
486.682
486.735
486.736
486.68
486.665
486.713
486.738
486.701
486.662
486.68
486.729
486.725
486.668
486.659
486.71
486.729
486.686
486.653
486.682
486.725
486.71
486.655
486.656
486.713
486.724
486.669
486.646
486.688
486.723
486.695
486.646
486.656
486.713
486.716
486.657
486.641
486.689
486.717
486.681
486.638
486.658
486.71
486.704
486.642
486.635
486.694
486.712
486.662
486.628
486.663
486.709
486.691
486.632
486.633
486.695
486.706
486.649
486.622
486.664
486.704
486.676
486.622
486.632
486.694
486.696
486.63
486.614
486.67
486.7
486.653
486.608
486.633
486.691
486.679
486.608
486.602
486.668
486.688
486.627
486.59
486.624
486.676
486.657
486.591
486.588
486.65
486.665
486.601
486.571
486.608
486.652
486.621
486.56
486.562
486.622
486.627
486.554
486.532
486.573
486.607
486.557
486.508
486.518
486.572
486.56
486.481
486.467
486.507
486.53
486.46
486.422
486.428
486.468
486.438
486.363
486.351
486.369
486.384
486.298
486.261
486.254
486.271
486.224
486.133
486.117
486.123
486.132
485.983
485.915
485.904
485.947
485.825
485.64
485.61
485.635
485.594
485.268
485.206
485.176
485.167
484.791
484.526
484.392
484.334
484.162
482.583
480.51
476.346
459.218
418.644
405.183
401.276
400.305
400.072
400.017
400.004
400.001
400
400
400
400
400
400
400
400
400
400
400
400
400
400
400
400
400
400
400
400
400
400
400
400
400
400
400
400
400
400
400
400
400
400
400
400
400
400
400
400
400
400
400
400
400
400
400
400
400
400
400
400
400
400
400
400
400
400
400
400
400
400
400
400
400
400
400
400
400
400
400
400
400
400
400
400
400
400
400
400
400
400
400
400
400
400
400
400
400
400
400
400
400
400
400
400
400
400
400
400
400
400
400
400
400
400
400
400
400
400
400
400
400
400
400
400
400
400
400
400
400
400
400
400
400
)
;

boundaryField
{
    sides
    {
        type            zeroGradient;
    }
    empty
    {
        type            empty;
    }
}


// ************************************************************************* //
