/*--------------------------------*- C++ -*----------------------------------*\
| =========                 |                                                 |
| \\      /  F ield         | OpenFOAM: The Open Source CFD Toolbox           |
|  \\    /   O peration     | Version:  4.1                                   |
|   \\  /    A nd           | Web:      www.OpenFOAM.org                      |
|    \\/     M anipulation  |                                                 |
\*---------------------------------------------------------------------------*/
FoamFile
{
    version     2.0;
    format      ascii;
    class       volVectorField;
    location    "0.0068";
    object      U;
}
// * * * * * * * * * * * * * * * * * * * * * * * * * * * * * * * * * * * * * //

dimensions      [0 1 -1 0 0 0 0];

internalField   nonuniform List<vector> 
1000
(
(-1.52964e-11 0 0)
(-1.47075e-11 0 0)
(-1.78716e-11 0 0)
(-1.66897e-11 0 0)
(-1.50879e-11 0 0)
(-1.66204e-11 0 0)
(-1.84523e-11 0 0)
(-1.80001e-11 0 0)
(-1.68697e-11 0 0)
(-1.63583e-11 0 0)
(-1.25827e-11 0 0)
(-1.33274e-11 0 0)
(-1.05934e-11 0 0)
(-1.4001e-11 0 0)
(-1.19368e-11 0 0)
(-1.25587e-11 0 0)
(-1.05486e-11 0 0)
(-1.4815e-11 0 0)
(-1.25877e-11 0 0)
(-1.81696e-11 0 0)
(-1.30562e-11 0 0)
(-1.60658e-11 0 0)
(-1.41748e-11 0 0)
(-1.82817e-11 0 0)
(-1.6166e-11 0 0)
(-1.61731e-11 0 0)
(-1.16291e-11 0 0)
(-1.31926e-11 0 0)
(-1.54455e-11 0 0)
(-1.74726e-11 0 0)
(-1.95863e-11 0 0)
(-1.95566e-11 0 0)
(-1.98832e-11 0 0)
(-1.94759e-11 0 0)
(-2.19669e-11 0 0)
(-1.87573e-11 0 0)
(-2.30476e-11 0 0)
(-2.02908e-11 0 0)
(-2.3256e-11 0 0)
(-1.89409e-11 0 0)
(-1.95292e-11 0 0)
(-1.65807e-11 0 0)
(-1.78824e-11 0 0)
(-1.53496e-11 0 0)
(-1.80041e-11 0 0)
(-1.29231e-11 0 0)
(-1.45906e-11 0 0)
(-9.3094e-12 0 0)
(-1.06343e-11 0 0)
(-3.69663e-12 0 0)
(-4.92025e-12 0 0)
(8.923e-13 0 0)
(-1.24645e-12 0 0)
(7.85489e-15 0 0)
(2.80076e-12 0 0)
(3.57176e-12 0 0)
(-1.00862e-12 0 0)
(-8.77883e-13 0 0)
(2.33518e-13 0 0)
(3.7107e-13 0 0)
(3.6798e-12 0 0)
(-3.00728e-13 0 0)
(4.97578e-12 0 0)
(-8.37205e-13 0 0)
(3.20064e-12 0 0)
(1.98921e-12 0 0)
(6.99857e-12 0 0)
(5.11611e-12 0 0)
(1.05152e-11 0 0)
(4.48573e-12 0 0)
(9.24599e-12 0 0)
(4.99891e-12 0 0)
(5.99736e-12 0 0)
(2.27196e-12 0 0)
(7.5175e-12 0 0)
(3.07478e-12 0 0)
(7.16484e-12 0 0)
(3.55893e-12 0 0)
(7.69736e-12 0 0)
(5.106e-12 0 0)
(5.23318e-12 0 0)
(4.97042e-12 0 0)
(1.04863e-12 0 0)
(4.16111e-12 0 0)
(4.781e-12 0 0)
(8.52286e-12 0 0)
(4.55657e-12 0 0)
(8.69298e-12 0 0)
(4.41242e-12 0 0)
(6.73635e-12 0 0)
(4.07817e-12 0 0)
(9.53383e-12 0 0)
(6.1582e-12 0 0)
(9.6068e-12 0 0)
(6.96084e-12 0 0)
(1.05312e-11 0 0)
(1.12068e-11 0 0)
(1.38293e-11 0 0)
(1.40658e-11 0 0)
(1.71437e-11 0 0)
(1.37515e-11 0 0)
(1.27105e-11 0 0)
(1.3228e-11 0 0)
(1.30238e-11 0 0)
(1.38219e-11 0 0)
(1.41188e-11 0 0)
(1.30399e-11 0 0)
(1.3638e-11 0 0)
(1.25991e-11 0 0)
(1.47632e-11 0 0)
(1.28201e-11 0 0)
(1.01013e-11 0 0)
(9.4416e-12 0 0)
(6.38104e-12 0 0)
(8.4341e-12 0 0)
(7.6083e-12 0 0)
(7.56455e-12 0 0)
(5.71673e-12 0 0)
(8.88868e-12 0 0)
(7.77163e-12 0 0)
(1.04059e-11 0 0)
(1.15152e-11 0 0)
(1.19592e-11 0 0)
(1.25083e-11 0 0)
(1.17116e-11 0 0)
(1.11761e-11 0 0)
(1.09527e-11 0 0)
(1.14009e-11 0 0)
(8.83878e-12 0 0)
(1.1303e-11 0 0)
(1.02605e-11 0 0)
(1.0697e-11 0 0)
(1.23662e-11 0 0)
(1.24775e-11 0 0)
(1.39968e-11 0 0)
(1.44056e-11 0 0)
(1.29702e-11 0 0)
(1.4109e-11 0 0)
(1.30974e-11 0 0)
(1.50143e-11 0 0)
(1.61055e-11 0 0)
(1.5815e-11 0 0)
(1.63409e-11 0 0)
(1.87736e-11 0 0)
(1.9496e-11 0 0)
(2.06894e-11 0 0)
(2.30948e-11 0 0)
(2.16599e-11 0 0)
(2.16118e-11 0 0)
(2.01992e-11 0 0)
(2.03182e-11 0 0)
(2.06932e-11 0 0)
(2.13538e-11 0 0)
(1.79242e-11 0 0)
(1.97638e-11 0 0)
(1.854e-11 0 0)
(1.87754e-11 0 0)
(1.99542e-11 0 0)
(1.76537e-11 0 0)
(1.91076e-11 0 0)
(1.8252e-11 0 0)
(1.82457e-11 0 0)
(1.72774e-11 0 0)
(1.44299e-11 0 0)
(1.40755e-11 0 0)
(1.67793e-11 0 0)
(1.96407e-11 0 0)
(2.44644e-11 0 0)
(3.33631e-11 0 0)
(4.78928e-11 0 0)
(7.53289e-11 0 0)
(1.27715e-10 0 0)
(2.32646e-10 0 0)
(4.37983e-10 0 0)
(8.30882e-10 0 0)
(1.58351e-09 0 0)
(3.00632e-09 0 0)
(5.68543e-09 0 0)
(1.06863e-08 0 0)
(1.99684e-08 0 0)
(3.70732e-08 0 0)
(6.83922e-08 0 0)
(1.25332e-07 0 0)
(2.28154e-07 0 0)
(4.12534e-07 0 0)
(7.40839e-07 0 0)
(1.32122e-06 0 0)
(2.33977e-06 0 0)
(4.11407e-06 0 0)
(7.18167e-06 0 0)
(1.24447e-05 0 0)
(2.14041e-05 0 0)
(3.65352e-05 0 0)
(6.18828e-05 0 0)
(0.000103995 0 0)
(0.000173373 0 0)
(0.000286685 0 0)
(0.000470131 0 0)
(0.000764449 0 0)
(0.0012323 0 0)
(0.00196898 0 0)
(0.00311772 0 0)
(0.00489113 0 0)
(0.00760082 0 0)
(0.0116973 0 0)
(0.0178225 0 0)
(0.0268778 0 0)
(0.0401079 0 0)
(0.0592025 0 0)
(0.0864125 0 0)
(0.124676 0 0)
(0.177746 0 0)
(0.250292 0 0)
(0.347975 0 0)
(0.477436 0 0)
(0.646182 0 0)
(0.862323 0 0)
(1.13411 0 0)
(1.4692 0 0)
(1.87367 0 0)
(2.35036 0 0)
(2.89736 0 0)
(3.50864 0 0)
(4.17709 0 0)
(4.89662 0 0)
(5.66221 0 0)
(6.46942 0 0)
(7.3141 0 0)
(8.19232 0 0)
(9.10043 0 0)
(10.035 0 0)
(10.9931 0 0)
(11.9719 0 0)
(12.969 0 0)
(13.9823 0 0)
(15.0099 0 0)
(16.0503 0 0)
(17.1021 0 0)
(18.164 0 0)
(19.2351 0 0)
(20.3143 0 0)
(21.401 0 0)
(22.4944 0 0)
(23.594 0 0)
(24.6991 0 0)
(25.8094 0 0)
(26.9245 0 0)
(28.0439 0 0)
(29.1673 0 0)
(30.2945 0 0)
(31.4251 0 0)
(32.559 0 0)
(33.6959 0 0)
(34.8356 0 0)
(35.978 0 0)
(37.1229 0 0)
(38.2701 0 0)
(39.4195 0 0)
(40.571 0 0)
(41.7245 0 0)
(42.8798 0 0)
(44.0369 0 0)
(45.1957 0 0)
(46.356 0 0)
(47.5179 0 0)
(48.6811 0 0)
(49.8458 0 0)
(51.0117 0 0)
(52.1788 0 0)
(53.3471 0 0)
(54.5166 0 0)
(55.687 0 0)
(56.8585 0 0)
(58.0309 0 0)
(59.2043 0 0)
(60.3785 0 0)
(61.5535 0 0)
(62.7293 0 0)
(63.9059 0 0)
(65.0831 0 0)
(66.2611 0 0)
(67.4396 0 0)
(68.6188 0 0)
(69.7985 0 0)
(70.9787 0 0)
(72.1594 0 0)
(73.3406 0 0)
(74.5223 0 0)
(75.7043 0 0)
(76.8867 0 0)
(78.0695 0 0)
(79.2526 0 0)
(80.436 0 0)
(81.6196 0 0)
(82.8035 0 0)
(83.9876 0 0)
(85.1719 0 0)
(86.3564 0 0)
(87.5409 0 0)
(88.7256 0 0)
(89.9104 0 0)
(91.0953 0 0)
(92.2801 0 0)
(93.465 0 0)
(94.6499 0 0)
(95.8347 0 0)
(97.0195 0 0)
(98.2041 0 0)
(99.3887 0 0)
(100.573 0 0)
(101.757 0 0)
(102.941 0 0)
(104.125 0 0)
(105.309 0 0)
(106.492 0 0)
(107.675 0 0)
(108.858 0 0)
(110.04 0 0)
(111.222 0 0)
(112.403 0 0)
(113.584 0 0)
(114.765 0 0)
(115.945 0 0)
(117.124 0 0)
(118.303 0 0)
(119.481 0 0)
(120.659 0 0)
(121.836 0 0)
(123.012 0 0)
(124.187 0 0)
(125.362 0 0)
(126.536 0 0)
(127.708 0 0)
(128.88 0 0)
(130.051 0 0)
(131.221 0 0)
(132.389 0 0)
(133.557 0 0)
(134.723 0 0)
(135.888 0 0)
(137.051 0 0)
(138.213 0 0)
(139.374 0 0)
(140.533 0 0)
(141.69 0 0)
(142.846 0 0)
(144 0 0)
(145.152 0 0)
(146.301 0 0)
(147.449 0 0)
(148.595 0 0)
(149.738 0 0)
(150.878 0 0)
(152.017 0 0)
(153.152 0 0)
(154.284 0 0)
(155.414 0 0)
(156.54 0 0)
(157.663 0 0)
(158.782 0 0)
(159.897 0 0)
(161.008 0 0)
(162.116 0 0)
(163.218 0 0)
(164.316 0 0)
(165.409 0 0)
(166.497 0 0)
(167.579 0 0)
(168.655 0 0)
(169.724 0 0)
(170.787 0 0)
(171.843 0 0)
(172.891 0 0)
(173.931 0 0)
(174.962 0 0)
(175.984 0 0)
(176.996 0 0)
(177.997 0 0)
(178.988 0 0)
(179.966 0 0)
(180.931 0 0)
(181.883 0 0)
(182.82 0 0)
(183.742 0 0)
(184.647 0 0)
(185.534 0 0)
(186.402 0 0)
(187.251 0 0)
(188.077 0 0)
(188.881 0 0)
(189.661 0 0)
(190.414 0 0)
(191.141 0 0)
(191.839 0 0)
(192.506 0 0)
(193.142 0 0)
(193.745 0 0)
(194.313 0 0)
(194.846 0 0)
(195.343 0 0)
(195.802 0 0)
(196.223 0 0)
(196.606 0 0)
(196.951 0 0)
(197.258 0 0)
(197.528 0 0)
(197.764 0 0)
(197.965 0 0)
(198.135 0 0)
(198.275 0 0)
(198.388 0 0)
(198.478 0 0)
(198.547 0 0)
(198.598 0 0)
(198.634 0 0)
(198.658 0 0)
(198.671 0 0)
(198.678 0 0)
(198.68 0 0)
(198.68 0 0)
(198.68 0 0)
(198.679 0 0)
(198.676 0 0)
(198.671 0 0)
(198.661 0 0)
(198.65 0 0)
(198.639 0 0)
(198.628 0 0)
(198.619 0 0)
(198.612 0 0)
(198.606 0 0)
(198.601 0 0)
(198.598 0 0)
(198.596 0 0)
(198.594 0 0)
(198.593 0 0)
(198.592 0 0)
(198.591 0 0)
(198.59 0 0)
(198.589 0 0)
(198.589 0 0)
(198.588 0 0)
(198.588 0 0)
(198.587 0 0)
(198.586 0 0)
(198.586 0 0)
(198.585 0 0)
(198.585 0 0)
(198.584 0 0)
(198.583 0 0)
(198.583 0 0)
(198.582 0 0)
(198.582 0 0)
(198.581 0 0)
(198.581 0 0)
(198.58 0 0)
(198.579 0 0)
(198.579 0 0)
(198.578 0 0)
(198.578 0 0)
(198.577 0 0)
(198.577 0 0)
(198.576 0 0)
(198.576 0 0)
(198.575 0 0)
(198.575 0 0)
(198.574 0 0)
(198.574 0 0)
(198.573 0 0)
(198.573 0 0)
(198.572 0 0)
(198.572 0 0)
(198.571 0 0)
(198.571 0 0)
(198.57 0 0)
(198.57 0 0)
(198.569 0 0)
(198.569 0 0)
(198.568 0 0)
(198.568 0 0)
(198.567 0 0)
(198.567 0 0)
(198.566 0 0)
(198.566 0 0)
(198.565 0 0)
(198.565 0 0)
(198.564 0 0)
(198.564 0 0)
(198.564 0 0)
(198.563 0 0)
(198.563 0 0)
(198.562 0 0)
(198.562 0 0)
(198.561 0 0)
(198.561 0 0)
(198.56 0 0)
(198.56 0 0)
(198.56 0 0)
(198.559 0 0)
(198.559 0 0)
(198.559 0 0)
(198.558 0 0)
(198.558 0 0)
(198.558 0 0)
(198.558 0 0)
(198.557 0 0)
(198.557 0 0)
(198.557 0 0)
(198.557 0 0)
(198.557 0 0)
(198.556 0 0)
(198.556 0 0)
(198.556 0 0)
(198.556 0 0)
(198.556 0 0)
(198.555 0 0)
(198.555 0 0)
(198.555 0 0)
(198.555 0 0)
(198.555 0 0)
(198.555 0 0)
(198.554 0 0)
(198.554 0 0)
(198.554 0 0)
(198.554 0 0)
(198.554 0 0)
(198.554 0 0)
(198.554 0 0)
(198.553 0 0)
(198.553 0 0)
(198.553 0 0)
(198.553 0 0)
(198.552 0 0)
(198.552 0 0)
(198.552 0 0)
(198.552 0 0)
(198.552 0 0)
(198.551 0 0)
(198.551 0 0)
(198.551 0 0)
(198.551 0 0)
(198.55 0 0)
(198.55 0 0)
(198.55 0 0)
(198.55 0 0)
(198.55 0 0)
(198.55 0 0)
(198.549 0 0)
(198.549 0 0)
(198.549 0 0)
(198.549 0 0)
(198.549 0 0)
(198.549 0 0)
(198.548 0 0)
(198.548 0 0)
(198.548 0 0)
(198.548 0 0)
(198.548 0 0)
(198.548 0 0)
(198.548 0 0)
(198.548 0 0)
(198.547 0 0)
(198.547 0 0)
(198.547 0 0)
(198.547 0 0)
(198.547 0 0)
(198.546 0 0)
(198.546 0 0)
(198.546 0 0)
(198.546 0 0)
(198.546 0 0)
(198.546 0 0)
(198.545 0 0)
(198.545 0 0)
(198.545 0 0)
(198.545 0 0)
(198.545 0 0)
(198.545 0 0)
(198.545 0 0)
(198.544 0 0)
(198.544 0 0)
(198.544 0 0)
(198.544 0 0)
(198.544 0 0)
(198.544 0 0)
(198.543 0 0)
(198.543 0 0)
(198.543 0 0)
(198.543 0 0)
(198.543 0 0)
(198.543 0 0)
(198.542 0 0)
(198.542 0 0)
(198.542 0 0)
(198.542 0 0)
(198.542 0 0)
(198.542 0 0)
(198.542 0 0)
(198.541 0 0)
(198.541 0 0)
(198.541 0 0)
(198.541 0 0)
(198.541 0 0)
(198.541 0 0)
(198.54 0 0)
(198.54 0 0)
(198.54 0 0)
(198.54 0 0)
(198.54 0 0)
(198.54 0 0)
(198.54 0 0)
(198.54 0 0)
(198.54 0 0)
(198.54 0 0)
(198.54 0 0)
(198.54 0 0)
(198.54 0 0)
(198.539 0 0)
(198.539 0 0)
(198.539 0 0)
(198.539 0 0)
(198.538 0 0)
(198.538 0 0)
(198.537 0 0)
(198.536 0 0)
(198.539 0 0)
(198.545 0 0)
(198.557 0 0)
(198.583 0 0)
(198.654 0 0)
(198.792 0 0)
(198.818 0 0)
(198.683 0 0)
(198.562 0 0)
(198.503 0 0)
(198.495 0 0)
(198.496 0 0)
(198.489 0 0)
(198.492 0 0)
(198.519 0 0)
(198.539 0 0)
(198.53 0 0)
(198.516 0 0)
(198.529 0 0)
(198.551 0 0)
(198.544 0 0)
(198.518 0 0)
(198.518 0 0)
(198.546 0 0)
(198.557 0 0)
(198.532 0 0)
(198.513 0 0)
(198.533 0 0)
(198.56 0 0)
(198.547 0 0)
(198.517 0 0)
(198.519 0 0)
(198.547 0 0)
(198.551 0 0)
(198.521 0 0)
(198.506 0 0)
(198.532 0 0)
(198.554 0 0)
(198.532 0 0)
(198.504 0 0)
(198.517 0 0)
(198.549 0 0)
(198.546 0 0)
(198.514 0 0)
(198.506 0 0)
(198.535 0 0)
(198.553 0 0)
(198.529 0 0)
(198.503 0 0)
(198.519 0 0)
(198.549 0 0)
(198.542 0 0)
(198.51 0 0)
(198.508 0 0)
(198.539 0 0)
(198.55 0 0)
(198.522 0 0)
(198.502 0 0)
(198.525 0 0)
(198.553 0 0)
(198.536 0 0)
(198.503 0 0)
(198.51 0 0)
(198.545 0 0)
(198.549 0 0)
(198.517 0 0)
(198.501 0 0)
(198.528 0 0)
(198.552 0 0)
(198.532 0 0)
(198.503 0 0)
(198.514 0 0)
(198.546 0 0)
(198.544 0 0)
(198.511 0 0)
(198.503 0 0)
(198.534 0 0)
(198.552 0 0)
(198.525 0 0)
(198.498 0 0)
(198.518 0 0)
(198.55 0 0)
(198.54 0 0)
(198.505 0 0)
(198.503 0 0)
(198.536 0 0)
(198.549 0 0)
(198.52 0 0)
(198.497 0 0)
(198.52 0 0)
(198.549 0 0)
(198.533 0 0)
(198.5 0 0)
(198.506 0 0)
(198.541 0 0)
(198.545 0 0)
(198.51 0 0)
(198.496 0 0)
(198.526 0 0)
(198.55 0 0)
(198.526 0 0)
(198.494 0 0)
(198.508 0 0)
(198.543 0 0)
(198.541 0 0)
(198.505 0 0)
(198.496 0 0)
(198.528 0 0)
(198.547 0 0)
(198.52 0 0)
(198.492 0 0)
(198.511 0 0)
(198.545 0 0)
(198.534 0 0)
(198.497 0 0)
(198.497 0 0)
(198.533 0 0)
(198.544 0 0)
(198.51 0 0)
(198.488 0 0)
(198.515 0 0)
(198.546 0 0)
(198.527 0 0)
(198.49 0 0)
(198.497 0 0)
(198.535 0 0)
(198.539 0 0)
(198.503 0 0)
(198.486 0 0)
(198.516 0 0)
(198.542 0 0)
(198.518 0 0)
(198.485 0 0)
(198.499 0 0)
(198.535 0 0)
(198.531 0 0)
(198.492 0 0)
(198.484 0 0)
(198.519 0 0)
(198.538 0 0)
(198.506 0 0)
(198.476 0 0)
(198.499 0 0)
(198.535 0 0)
(198.521 0 0)
(198.48 0 0)
(198.479 0 0)
(198.517 0 0)
(198.53 0 0)
(198.493 0 0)
(198.467 0 0)
(198.494 0 0)
(198.526 0 0)
(198.506 0 0)
(198.466 0 0)
(198.472 0 0)
(198.511 0 0)
(198.513 0 0)
(198.471 0 0)
(198.453 0 0)
(198.487 0 0)
(198.512 0 0)
(198.48 0 0)
(198.441 0 0)
(198.458 0 0)
(198.497 0 0)
(198.486 0 0)
(198.437 0 0)
(198.427 0 0)
(198.466 0 0)
(198.482 0 0)
(198.441 0 0)
(198.403 0 0)
(198.423 0 0)
(198.459 0 0)
(198.44 0 0)
(198.39 0 0)
(198.381 0 0)
(198.415 0 0)
(198.424 0 0)
(198.378 0 0)
(198.341 0 0)
(198.359 0 0)
(198.386 0 0)
(198.357 0 0)
(198.304 0 0)
(198.296 0 0)
(198.325 0 0)
(198.319 0 0)
(198.263 0 0)
(198.227 0 0)
(198.243 0 0)
(198.256 0 0)
(198.209 0 0)
(198.15 0 0)
(198.142 0 0)
(198.16 0 0)
(198.132 0 0)
(198.062 0 0)
(198.023 0 0)
(198.028 0 0)
(198.018 0 0)
(197.952 0 0)
(197.884 0 0)
(197.862 0 0)
(197.856 0 0)
(197.801 0 0)
(197.714 0 0)
(197.658 0 0)
(197.634 0 0)
(197.592 0 0)
(197.497 0 0)
(197.403 0 0)
(197.347 0 0)
(197.302 0 0)
(197.202 0 0)
(197.065 0 0)
(196.963 0 0)
(196.893 0 0)
(196.79 0 0)
(196.61 0 0)
(196.438 0 0)
(196.323 0 0)
(196.216 0 0)
(196.003 0 0)
(195.733 0 0)
(195.534 0 0)
(195.386 0 0)
(195.135 0 0)
(194.739 0 0)
(194.387 0 0)
(194.131 0 0)
(193.833 0 0)
(193.317 0 0)
(192.715 0 0)
(192.118 0 0)
(191.437 0 0)
(190.386 0 0)
(187.951 0 0)
(182.469 0 0)
(168.191 0 0)
(121.989 0 0)
(50.9259 0 0)
(13.7112 0 0)
(3.41187 0 0)
(0.818689 0 0)
(0.194436 0 0)
(0.0460554 0 0)
(0.0108995 0 0)
(0.00257886 0 0)
(0.000610142 0 0)
(0.000144355 0 0)
(3.41534e-05 0 0)
(8.08034e-06 0 0)
(1.91172e-06 0 0)
(4.52298e-07 0 0)
(1.07023e-07 0 0)
(2.53382e-08 0 0)
(6.01288e-09 0 0)
(1.44226e-09 0 0)
(3.6079e-10 0 0)
(1.05064e-10 0 0)
(4.34107e-11 0 0)
(2.97446e-11 0 0)
(2.57219e-11 0 0)
(2.38327e-11 0 0)
(2.3272e-11 0 0)
(2.34991e-11 0 0)
(2.43163e-11 0 0)
(2.40219e-11 0 0)
(2.36261e-11 0 0)
(2.30366e-11 0 0)
(2.43413e-11 0 0)
(2.00381e-11 0 0)
(2.15627e-11 0 0)
(2.19041e-11 0 0)
(2.09558e-11 0 0)
(2.03879e-11 0 0)
(2.1347e-11 0 0)
(2.25041e-11 0 0)
(2.54154e-11 0 0)
(2.49626e-11 0 0)
(2.72321e-11 0 0)
(2.70405e-11 0 0)
(2.82669e-11 0 0)
(2.86437e-11 0 0)
(3.07797e-11 0 0)
(2.94278e-11 0 0)
(3.04618e-11 0 0)
(3.11627e-11 0 0)
(2.79875e-11 0 0)
(2.77982e-11 0 0)
(2.65597e-11 0 0)
(2.71557e-11 0 0)
(2.69064e-11 0 0)
(2.67898e-11 0 0)
(2.62332e-11 0 0)
(2.68484e-11 0 0)
(2.60027e-11 0 0)
(2.91278e-11 0 0)
(2.79634e-11 0 0)
(2.91258e-11 0 0)
(2.68647e-11 0 0)
(2.98495e-11 0 0)
(2.71504e-11 0 0)
(2.71324e-11 0 0)
(2.52267e-11 0 0)
(2.62348e-11 0 0)
(2.62276e-11 0 0)
(2.8839e-11 0 0)
(2.74581e-11 0 0)
(2.67372e-11 0 0)
(2.6546e-11 0 0)
(2.89114e-11 0 0)
(3.02176e-11 0 0)
(2.89464e-11 0 0)
(2.83263e-11 0 0)
(2.60821e-11 0 0)
(2.42473e-11 0 0)
(2.41692e-11 0 0)
(2.35386e-11 0 0)
(2.51279e-11 0 0)
(2.29454e-11 0 0)
(2.28034e-11 0 0)
(2.05201e-11 0 0)
(2.2927e-11 0 0)
(2.13232e-11 0 0)
(2.147e-11 0 0)
(2.22266e-11 0 0)
(2.24223e-11 0 0)
(2.33502e-11 0 0)
(2.17293e-11 0 0)
(2.03642e-11 0 0)
(2.02462e-11 0 0)
(2.10564e-11 0 0)
(1.96472e-11 0 0)
(2.0282e-11 0 0)
(1.96671e-11 0 0)
(2.18602e-11 0 0)
(2.30286e-11 0 0)
(2.45966e-11 0 0)
(2.40567e-11 0 0)
(2.3537e-11 0 0)
(2.09818e-11 0 0)
(2.21151e-11 0 0)
(2.08011e-11 0 0)
(2.22117e-11 0 0)
(2.24177e-11 0 0)
(2.06325e-11 0 0)
(2.01091e-11 0 0)
(2.36729e-11 0 0)
(2.1952e-11 0 0)
(2.20791e-11 0 0)
(2.21455e-11 0 0)
(2.11177e-11 0 0)
(1.92512e-11 0 0)
(1.83499e-11 0 0)
(1.76602e-11 0 0)
(1.7718e-11 0 0)
(2.13624e-11 0 0)
(2.28678e-11 0 0)
(2.375e-11 0 0)
(2.19085e-11 0 0)
(2.32559e-11 0 0)
(2.04646e-11 0 0)
(2.23744e-11 0 0)
(2.09503e-11 0 0)
(2.2858e-11 0 0)
(2.26718e-11 0 0)
(2.47296e-11 0 0)
(2.26992e-11 0 0)
(2.79224e-11 0 0)
(2.55517e-11 0 0)
(2.7936e-11 0 0)
(2.72891e-11 0 0)
)
;

boundaryField
{
    sides
    {
        type            zeroGradient;
    }
    empty
    {
        type            empty;
    }
}


// ************************************************************************* //
