/*--------------------------------*- C++ -*----------------------------------*\
| =========                 |                                                 |
| \\      /  F ield         | OpenFOAM: The Open Source CFD Toolbox           |
|  \\    /   O peration     | Version:  4.1                                   |
|   \\  /    A nd           | Web:      www.OpenFOAM.org                      |
|    \\/     M anipulation  |                                                 |
\*---------------------------------------------------------------------------*/
FoamFile
{
    version     2.0;
    format      ascii;
    class       surfaceScalarField;
    location    "0.0016";
    object      phi;
}
// * * * * * * * * * * * * * * * * * * * * * * * * * * * * * * * * * * * * * //

dimensions      [1 0 -1 0 0 0 0];

internalField   nonuniform List<scalar> 
999
(
-3.31184e-11
-3.76374e-11
-3.68914e-11
-3.25713e-11
-3.16049e-11
-3.78364e-11
-3.50724e-11
-3.16334e-11
-2.467e-11
-2.43716e-11
-2.61338e-11
-3.17115e-11
-3.20384e-11
-3.41416e-11
-2.8372e-11
-2.30571e-11
-2.42864e-11
-3.26779e-11
-3.1541e-11
-2.81517e-11
-1.9952e-11
-1.57527e-11
-8.05045e-12
-7.31148e-12
-1.39337e-11
-1.83107e-11
-1.7188e-11
-1.97034e-11
-1.60298e-11
-2.13731e-11
-1.94973e-11
-2.40945e-11
-2.08686e-11
-2.58709e-11
-1.96039e-11
-1.38982e-11
-1.13403e-11
-1.44667e-11
-1.44524e-11
-9.60654e-12
-4.37694e-12
-7.10543e-13
-3.03402e-12
-5.40723e-12
-1.60583e-12
5.32907e-13
1.25056e-12
-1.75504e-12
3.87956e-12
3.62377e-12
1.03455e-11
9.86233e-12
3.99325e-12
9.37916e-13
-1.71241e-12
1.28608e-12
1.42109e-13
1.68399e-12
2.84928e-12
5.74119e-12
5.68434e-14
-3.8014e-12
-1.20437e-11
-1.40545e-11
-1.99734e-11
-1.76499e-11
-1.37845e-11
-7.13385e-12
-5.54223e-12
-8.1144e-12
-9.12337e-12
-1.80691e-11
-1.19798e-11
-3.49587e-12
-4.4551e-12
1.79767e-12
7.08411e-12
1.11129e-11
1.17524e-11
1.50777e-11
6.76437e-12
8.2494e-12
1.53761e-11
1.67404e-11
2.00302e-11
2.35616e-11
2.46985e-11
1.81757e-11
2.19273e-11
1.66338e-11
2.46487e-11
2.22755e-11
1.64846e-11
2.42224e-11
2.65103e-11
2.56009e-11
2.45493e-11
1.75575e-11
1.16955e-11
1.45164e-11
1.93339e-11
2.12381e-11
2.00231e-11
1.60014e-11
1.14824e-11
9.64206e-12
9.72022e-12
1.69535e-11
2.22684e-11
2.80735e-11
2.43077e-11
2.14229e-11
1.41611e-11
1.12621e-11
1.43601e-11
8.96705e-12
3.43903e-12
9.19442e-12
1.32303e-11
1.67617e-11
1.47935e-11
8.98126e-12
6.79279e-12
1.20792e-13
-5.22959e-12
-8.05045e-12
-2.94875e-12
-2.8848e-12
4.9738e-14
3.12639e-13
-1.84741e-13
3.23297e-12
1.02887e-11
1.59446e-11
2.47908e-11
2.74269e-11
2.56648e-11
2.82299e-11
2.45279e-11
1.79412e-11
1.28111e-11
7.26175e-12
6.84963e-12
7.71649e-12
6.672e-12
2.49401e-12
1.7053e-13
4.9738e-12
-2.25242e-12
-8.36309e-12
-6.61515e-12
-1.01466e-11
-1.81473e-11
-1.51914e-11
-1.49996e-11
-2.05205e-11
-2.3249e-11
-1.50351e-11
-9.2939e-12
-9.96891e-12
-6.04672e-12
-1.10347e-11
-1.43672e-11
-9.85523e-12
-1.65556e-12
-1.39266e-12
7.88702e-13
2.17426e-12
4.07141e-12
2.16005e-12
-2.55795e-12
-8.98837e-12
-9.2939e-12
-6.35936e-12
-3.41061e-12
-9.74154e-12
-2.224e-12
1.5703e-12
-3.91509e-12
-9.57812e-12
-9.78417e-12
-1.98952e-12
6.20304e-12
1.085e-11
1.15321e-11
1.10987e-11
9.08784e-12
1.37916e-11
1.70317e-11
2.08757e-11
1.65628e-11
1.29745e-11
1.10916e-11
8.70415e-12
7.58149e-12
1.86873e-12
2.01084e-12
1.02673e-11
7.93676e-12
8.32756e-12
6.12488e-12
6.807e-12
1.20934e-11
6.70042e-12
5.3717e-12
3.70193e-12
8.44125e-12
9.43601e-12
1.38556e-11
1.41327e-11
9.9547e-12
1.00613e-11
1.9412e-11
1.79128e-11
1.99307e-11
1.97673e-11
1.59162e-11
1.19016e-11
7.61702e-12
8.26361e-12
9.40048e-12
7.83018e-12
9.18732e-12
1.1795e-11
1.20011e-11
1.11555e-11
9.17311e-12
1.03242e-11
6.53699e-13
-2.27374e-13
-1.28608e-12
7.43228e-12
6.19593e-12
-8.45546e-13
3.78719e-12
1.93268e-12
-1.28608e-12
2.12452e-12
-1.46372e-12
-3.28981e-12
2.77112e-13
-2.66454e-12
-7.90834e-12
-1.02247e-11
-8.02913e-12
-6.07514e-12
-3.68061e-12
2.40874e-12
1.11555e-12
-1.81899e-12
1.51346e-12
1.52056e-12
-4.24905e-12
-8.66862e-12
-9.19442e-12
-9.22284e-12
-1.20579e-11
-7.53175e-12
-7.70228e-12
-9.46443e-12
-3.95772e-12
-8.36309e-12
-5.06617e-12
1.13687e-12
3.28271e-12
3.2685e-12
3.29692e-12
3.78009e-12
7.65965e-12
9.59233e-12
2.70717e-12
-2.06057e-12
-4.70379e-12
2.89191e-12
1.1056e-11
4.76774e-12
9.72022e-12
8.45546e-12
4.25615e-12
8.95994e-12
4.37694e-12
2.42295e-12
3.63087e-12
5.42855e-12
1.37987e-11
1.66054e-11
9.96181e-12
1.27045e-11
9.90497e-12
8.71836e-12
1.28395e-11
1.11058e-11
1.14539e-11
1.30171e-11
1.5504e-11
1.53975e-11
9.91918e-12
4.81037e-12
5.34328e-12
1.04734e-11
8.65441e-12
1.77636e-13
1.38556e-12
2.86349e-12
2.95586e-12
1.50635e-12
-2.56506e-12
-4.68248e-12
1.85452e-12
2.03926e-12
4.52616e-12
-3.20455e-12
-4.76064e-12
-1.27187e-12
7.24754e-13
1.59162e-12
2.13163e-14
0
0
1.44951e-12
1.62714e-12
-1.62714e-12
-1.44951e-12
-1.21503e-12
-1.37845e-12
1.39977e-12
1.20082e-12
-9.73444e-13
1.45661e-12
4.1851e-12
2.31637e-12
4.61853e-12
3.29692e-12
-2.25242e-12
-3.5385e-12
1.23634e-12
-3.93641e-12
-4.25615e-12
-4.24905e-12
2.13163e-13
1.62714e-12
0
1.79057e-12
2.41585e-12
1.00187e-12
-4.54747e-12
6.53699e-13
3.60956e-12
-1.1724e-12
-3.38218e-12
-2.71427e-12
-2.224e-12
-1.8332e-12
6.03961e-12
1.41256e-11
1.0175e-11
4.03588e-12
-3.62377e-12
-4.81037e-12
3.0056e-12
9.9476e-13
-3.16192e-12
-4.12825e-12
-3.87246e-12
2.76401e-12
8.87468e-12
7.65965e-12
1.75504e-12
1.91847e-12
4.0572e-12
3.21876e-12
-9.59233e-13
-5.96856e-12
-8.73968e-13
4.46931e-12
1.21503e-12
-6.37357e-12
-1.2804e-11
-7.96518e-12
-4.73221e-12
-3.16902e-12
-2.01794e-12
2.28084e-12
3.85114e-12
4.1922e-13
1.39266e-12
1.21503e-12
3.24718e-12
1.26477e-12
2.62901e-12
3.82272e-12
4.46221e-12
7.60281e-12
1.54188e-12
1.33582e-12
1.78346e-12
3.19744e-13
1.01039e-11
3.68843e-11
1.25674e-10
3.79337e-10
1.11862e-09
3.2242e-09
9.10924e-09
2.53078e-08
6.92044e-08
1.86337e-07
4.93981e-07
1.28904e-06
3.31e-06
8.36055e-06
2.07643e-05
5.06867e-05
0.000121553
0.000286238
0.000661533
0.00149967
0.00333275
0.0072558
0.0154645
0.0322415
0.0656978
0.130717
0.253683
0.479638
0.882294
1.57663
2.73218
4.58243
7.42134
11.5716
17.2907
24.5281
33.0246
42.6173
53.1343
64.3756
76.1433
88.2598
100.577
112.976
125.366
137.677
149.856
161.863
173.669
185.25
196.587
207.668
218.482
229.02
239.276
249.245
258.924
268.31
277.401
286.194
294.69
302.888
310.786
318.385
325.683
332.682
339.379
345.774
351.867
357.658
363.137
368.33
373.171
377.781
381.962
385.959
389.568
392.781
395.925
398.429
400.85
402.976
404.524
406.061
407.284
408.035
408.717
409.286
409.532
409.591
409.725
409.763
409.73
409.657
409.622
409.599
409.578
409.501
409.401
409.365
409.337
409.28
409.244
409.224
409.207
409.169
409.139
409.122
409.099
409.055
409.022
408.991
408.955
408.915
408.884
408.846
408.775
408.7
408.647
408.608
408.576
408.51
408.312
408.092
407.968
407.942
407.98
408.388
408.773
408.887
408.249
401.384
374.86
343.333
319.222
301.457
289.095
281.552
277.53
275.246
273.695
273.009
272.979
273.259
273.251
272.925
272.893
273.31
273.468
273.105
272.85
273.027
273.426
273.399
272.862
272.804
273.248
273.441
272.937
272.707
272.815
273.242
273.14
272.567
272.515
272.791
273.075
272.391
272.178
272.22
272.526
272.568
271.52
271.405
271.497
271.992
271.252
270.034
270.012
270.387
271.076
268.047
267.208
267.193
267.426
267.743
258.81
242.82
215.781
82.5868
25.6388
6.45661
1.54341
0.364225
0.0856943
0.0201451
0.00473378
0.00111203
0.00026118
6.1333e-05
1.44007e-05
3.38068e-06
7.93505e-07
1.86216e-07
4.36922e-08
1.02494e-08
2.40382e-09
5.64036e-10
1.329e-10
3.1358e-11
6.942e-12
1.51701e-12
5.57776e-13
-1.41398e-12
-1.82965e-12
-1.44773e-12
-8.11795e-13
4.74287e-13
2.26308e-12
1.45128e-12
1.6005e-12
2.75335e-13
-2.14939e-13
-6.34159e-13
-1.0516e-12
-5.66658e-13
-5.43565e-13
7.69163e-13
1.33937e-12
2.84217e-13
1.55254e-12
-1.82965e-13
-2.24532e-12
-4.70735e-13
-5.82645e-13
-4.31655e-13
-1.5099e-13
-6.34159e-13
-2.91323e-13
-2.02505e-13
4.28102e-13
3.9968e-13
-1.77636e-14
1.58451e-12
-3.55271e-14
-1.15818e-12
-9.82325e-13
-2.28084e-12
-1.9007e-13
1.65201e-12
1.25056e-12
1.23279e-12
5.68434e-13
-1.33227e-13
-5.56e-13
-5.45342e-13
-1.72484e-12
-1.84919e-12
-4.81393e-13
-2.59348e-13
-2.27551e-12
-2.04992e-12
-1.26121e-12
-4.29878e-13
-3.39284e-13
-3.81917e-13
1.13687e-13
-1.26299e-12
-5.56e-13
8.40217e-13
1.71418e-12
9.5568e-13
-1.08358e-13
6.21725e-13
8.49099e-13
2.49223e-12
2.04992e-12
3.83693e-13
-1.91847e-13
3.55271e-15
-2.8777e-13
-3.89022e-13
2.30926e-13
-1.13687e-12
-1.87228e-12
-1.01075e-12
-1.10134e-13
-1.24523e-12
-1.38733e-12
-7.69163e-13
-3.58824e-13
-9.32587e-13
4.90274e-13
7.63833e-13
5.68434e-13
1.98952e-13
-3.09086e-13
-6.21725e-13
1.05338e-12
1.76748e-12
2.12275e-12
2.4194e-12
1.06226e-12
1.06226e-12
7.99361e-13
7.19425e-13
6.75016e-13
1.89893e-12
1.56142e-12
4.44089e-14
1.09601e-12
1.78524e-12
1.46372e-12
1.28253e-12
7.81597e-13
2.06057e-13
-6.64357e-13
-8.0469e-13
-6.55476e-13
-4.1922e-13
-2.94875e-13
-4.9738e-13
-7.01661e-13
-2.43361e-13
-4.52971e-13
1.12266e-12
-1.77636e-14
-2.2915e-13
3.44613e-13
-6.76792e-13
-1.44773e-12
-2.63967e-12
-2.49933e-12
-9.84102e-13
-2.24887e-12
-9.29035e-13
9.05942e-14
1.25056e-12
2.73026e-12
6.30607e-13
-7.92255e-13
4.583e-13
5.04485e-13
-1.23812e-12
-1.35003e-13
-9.96536e-13
-6.16396e-13
8.75744e-13
2.90612e-12
2.33591e-12
2.96119e-12
2.07834e-12
4.17444e-13
-8.45546e-13
-1.97176e-13
-1.10134e-13
-1.44951e-12
-1.16707e-12
7.63833e-13
-3.35731e-13
-3.28626e-13
5.15143e-13
-2.71783e-13
-1.8705e-12
-3.32889e-12
-2.71427e-12
-1.09779e-12
-8.36664e-13
-2.66454e-14
-9.34364e-13
-2.36078e-12
-3.33955e-12
-2.46558e-12
-1.72129e-12
-1.23279e-12
-5.32907e-15
-9.30811e-13
-2.54019e-13
3.49942e-13
7.63833e-14
6.83897e-13
1.15641e-12
1.31095e-12
7.10543e-14
-2.61124e-13
-1.4424e-12
-8.27782e-13
-5.18696e-13
-5.70211e-13
-8.59757e-13
1.86517e-13
-1.7053e-13
-1.36957e-12
-1.03384e-12
1.23457e-12
6.07514e-13
6.03961e-13
1.56675e-12
1.79945e-12
2.22933e-12
1.79412e-12
1.37668e-12
8.52651e-14
-5.68434e-13
3.8014e-13
1.35536e-12
1.95044e-12
1.12976e-12
-5.79092e-13
6.89226e-13
1.08002e-12
1.28608e-12
2.359e-12
6.80345e-13
1.32161e-12
1.4726e-12
4.90274e-13
2.11564e-12
2.61657e-12
1.25944e-12
5.73763e-13
1.5099e-13
-1.0818e-12
-2.79599e-12
-2.57394e-12
-1.12266e-12
-2.3519e-12
-1.7959e-12
-2.15117e-12
-1.55786e-12
-7.54952e-13
-1.14397e-12
-1.06049e-12
-1.07825e-12
-1.82254e-12
-2.224e-12
-3.55094e-12
-4.05365e-12
-2.54019e-12
-2.15294e-12
-1.9007e-13
1.26121e-12
5.73763e-13
1.92379e-12
1.83853e-12
1.9611e-12
2.1938e-12
1.51701e-12
-3.92575e-13
-4.90274e-13
-2.46914e-13
-5.93303e-13
1.66978e-13
-2.13163e-14
1.35358e-12
2.56684e-12
9.48575e-13
2.16716e-12
7.51399e-13
-8.73968e-13
-1.89182e-12
-1.03384e-12
-1.72662e-12
-8.29559e-13
3.33955e-13
-3.51719e-13
-1.11022e-12
-4.33431e-13
-1.81188e-12
-3.7268e-12
-3.55449e-12
-4.21529e-12
-4.75531e-12
-4.64695e-12
-2.10676e-12
-1.82609e-12
-3.63976e-12
-3.6966e-12
-4.11404e-12
-4.02878e-12
-4.09983e-12
-3.61666e-12
-2.87237e-12
-2.32347e-12
-7.83373e-13
-6.30607e-13
-1.16707e-12
-1.06404e-12
8.01137e-13
2.46558e-12
1.58984e-12
-2.16716e-13
-6.53699e-13
3.87246e-13
8.68638e-13
-3.30402e-13
1.68576e-12
1.65024e-12
1.62537e-12
3.96128e-12
5.11768e-12
4.59188e-12
3.02691e-12
1.61471e-12
1.25233e-12
2.13873e-12
1.70708e-12
2.11209e-12
1.73905e-12
1.83853e-12
3.56515e-12
4.06253e-12
4.16378e-12
4.26503e-12
3.94884e-12
3.31113e-12
3.63087e-12
2.79066e-12
1.39444e-12
1.82609e-12
-3.73035e-14
-7.40741e-13
-8.13571e-13
-1.72662e-12
-9.32587e-13
1.77636e-14
-1.19016e-13
-5.68434e-13
1.41576e-12
2.10676e-12
2.96652e-12
2.75335e-12
2.8475e-12
1.22569e-12
1.36957e-12
1.71241e-12
1.92379e-12
5.79092e-13
1.22569e-13
4.28102e-13
7.83373e-13
-1.13687e-13
-1.55254e-12
-1.68754e-13
7.70939e-13
-1.24878e-12
-6.05738e-13
-9.14824e-13
-5.00933e-13
2.78888e-13
0
0
0
0
1.77636e-15
-1.19016e-13
9.59233e-13
1.63602e-12
3.94351e-13
5.15143e-13
-2.04281e-13
1.27898e-13
-3.01981e-13
3.19744e-14
4.26326e-14
-7.28306e-13
-3.33955e-13
5.73763e-13
8.43769e-13
5.20473e-13
-1.55786e-12
-9.92983e-13
-7.74492e-13
-6.83897e-13
1.54543e-13
2.4869e-14
5.15143e-14
3.51719e-13
1.0818e-12
2.02505e-12
3.22053e-12
3.07843e-12
4.63807e-12
4.33076e-12
4.14602e-12
4.64873e-12
5.10347e-12
7.28306e-12
8.75922e-12
9.18021e-12
7.88347e-12
8.64198e-12
7.8515e-12
6.80167e-12
7.84617e-12
8.59579e-12
9.03988e-12
1.01092e-11
1.11964e-11
1.17613e-11
1.0365e-11
1.1859e-11
)
;

boundaryField
{
    sides
    {
        type            calculated;
        value           nonuniform List<scalar> 2(1.16489e-11 3.29047e-11);
    }
    empty
    {
        type            empty;
        value           nonuniform 0();
    }
}


// ************************************************************************* //
