/*--------------------------------*- C++ -*----------------------------------*\
| =========                 |                                                 |
| \\      /  F ield         | OpenFOAM: The Open Source CFD Toolbox           |
|  \\    /   O peration     | Version:  4.1                                   |
|   \\  /    A nd           | Web:      www.OpenFOAM.org                      |
|    \\/     M anipulation  |                                                 |
\*---------------------------------------------------------------------------*/
FoamFile
{
    version     2.0;
    format      ascii;
    class       volVectorField;
    location    "0.0016";
    object      U;
}
// * * * * * * * * * * * * * * * * * * * * * * * * * * * * * * * * * * * * * //

dimensions      [0 1 -1 0 0 0 0];

internalField   nonuniform List<vector> 
1000
(
(-9.46328e-12 0 0)
(-9.81389e-12 0 0)
(-1.21698e-11 0 0)
(-8.98835e-12 0 0)
(-8.70169e-12 0 0)
(-1.05919e-11 0 0)
(-1.04212e-11 0 0)
(-1.02265e-11 0 0)
(-6.93493e-12 0 0)
(-8.08456e-12 0 0)
(-6.30202e-12 0 0)
(-8.77183e-12 0 0)
(-8.47875e-12 0 0)
(-1.06346e-11 0 0)
(-8.5728e-12 0 0)
(-7.99305e-12 0 0)
(-5.49792e-12 0 0)
(-9.0774e-12 0 0)
(-9.05585e-12 0 0)
(-9.64934e-12 0 0)
(-5.96326e-12 0 0)
(-5.76308e-12 0 0)
(-3.17041e-12 0 0)
(-1.83996e-12 0 0)
(-1.87173e-12 0 0)
(-6.62365e-12 0 0)
(-3.43537e-12 0 0)
(-6.74846e-12 0 0)
(-4.26833e-12 0 0)
(-5.81181e-12 0 0)
(-5.79749e-12 0 0)
(-5.79726e-12 0 0)
(-7.08822e-12 0 0)
(-5.84688e-12 0 0)
(-8.09083e-12 0 0)
(-3.82738e-12 0 0)
(-3.99523e-12 0 0)
(-2.86084e-12 0 0)
(-5.22197e-12 0 0)
(-3.13854e-12 0 0)
(-1.96165e-12 0 0)
(-4.04967e-13 0 0)
(-1.48582e-13 0 0)
(-1.70039e-12 0 0)
(-1.10935e-12 0 0)
(6.115e-14 0 0)
(3.96844e-13 0 0)
(7.21684e-15 0 0)
(-6.59758e-13 0 0)
(2.49764e-12 0 0)
(-7.41823e-14 0 0)
(5.37969e-12 0 0)
(8.14433e-13 0 0)
(1.87852e-12 0 0)
(-1.57574e-12 0 0)
(9.34043e-13 0 0)
(-4.31686e-13 0 0)
(5.64379e-13 0 0)
(3.38195e-13 0 0)
(1.29678e-12 0 0)
(1.58835e-12 0 0)
(-1.41317e-12 0 0)
(-1.36015e-12 0 0)
(-4.75147e-12 0 0)
(-3.86733e-12 0 0)
(-6.9548e-12 0 0)
(-3.60045e-12 0 0)
(-4.79043e-12 0 0)
(8.98078e-13 0 0)
(-4.0127e-12 0 0)
(-2.20768e-13 0 0)
(-5.69944e-12 0 0)
(-4.0448e-12 0 0)
(-2.27157e-12 0 0)
(-2.39516e-13 0 0)
(-1.57238e-12 0 0)
(2.09394e-12 0 0)
(2.91598e-12 0 0)
(2.69459e-12 0 0)
(4.79682e-12 0 0)
(2.90289e-12 0 0)
(1.51817e-12 0 0)
(3.42742e-12 0 0)
(4.9227e-12 0 0)
(4.06686e-12 0 0)
(8.2062e-12 0 0)
(6.35075e-12 0 0)
(6.5292e-12 0 0)
(4.91066e-12 0 0)
(6.47639e-12 0 0)
(4.26153e-12 0 0)
(8.7905e-12 0 0)
(4.46339e-12 0 0)
(5.53143e-12 0 0)
(7.7167e-12 0 0)
(7.96418e-12 0 0)
(6.97458e-12 0 0)
(7.03363e-12 0 0)
(3.33761e-12 0 0)
(3.10311e-12 0 0)
(5.49901e-12 0 0)
(5.443e-12 0 0)
(6.58386e-12 0 0)
(5.48674e-12 0 0)
(3.5697e-12 0 0)
(2.78059e-12 0 0)
(2.56058e-12 0 0)
(3.39762e-12 0 0)
(5.95866e-12 0 0)
(7.25743e-12 0 0)
(8.45496e-12 0 0)
(6.10193e-12 0 0)
(5.41475e-12 0 0)
(3.42232e-12 0 0)
(2.6364e-12 0 0)
(5.28123e-12 0 0)
(1.84684e-13 0 0)
(2.01449e-12 0 0)
(2.73838e-12 0 0)
(5.30959e-12 0 0)
(4.55844e-12 0 0)
(3.35291e-12 0 0)
(2.11183e-12 0 0)
(1.6554e-12 0 0)
(-1.53013e-12 0 0)
(-1.82369e-12 0 0)
(-2.1752e-12 0 0)
(-1.21186e-13 0 0)
(-9.20432e-13 0 0)
(7.58185e-13 0 0)
(-4.01098e-13 0 0)
(2.19228e-13 0 0)
(1.90895e-12 0 0)
(3.46338e-12 0 0)
(6.33968e-12 0 0)
(8.06142e-12 0 0)
(6.9999e-12 0 0)
(8.02836e-12 0 0)
(8.44811e-12 0 0)
(5.74959e-12 0 0)
(4.75001e-12 0 0)
(2.17467e-12 0 0)
(2.32899e-12 0 0)
(2.01503e-12 0 0)
(2.11601e-12 0 0)
(1.36325e-12 0 0)
(2.02652e-13 0 0)
(-3.29495e-14 0 0)
(2.4256e-12 0 0)
(-3.48941e-12 0 0)
(-1.15391e-12 0 0)
(-2.8112e-12 0 0)
(-3.44242e-12 0 0)
(-6.22544e-12 0 0)
(-3.17402e-12 0 0)
(-5.51349e-12 0 0)
(-6.08079e-12 0 0)
(-6.71195e-12 0 0)
(-2.41283e-12 0 0)
(-3.13203e-12 0 0)
(-2.25589e-12 0 0)
(-1.51415e-12 0 0)
(-4.34698e-12 0 0)
(-4.18342e-12 0 0)
(-1.38774e-12 0 0)
(2.45413e-13 0 0)
(-7.98083e-13 0 0)
(9.9469e-13 0 0)
(7.29929e-13 0 0)
(1.17406e-12 0 0)
(1.33773e-13 0 0)
(-1.83373e-12 0 0)
(-2.98376e-12 0 0)
(-2.68945e-12 0 0)
(-7.19046e-13 0 0)
(-1.35767e-12 0 0)
(-3.82269e-12 0 0)
(2.23968e-12 0 0)
(-1.05285e-12 0 0)
(-1.56634e-12 0 0)
(-4.11186e-12 0 0)
(-1.08233e-12 0 0)
(9.41814e-14 0 0)
(3.05444e-12 0 0)
(3.05957e-12 0 0)
(4.13707e-12 0 0)
(1.57018e-12 0 0)
(4.06147e-12 0 0)
(4.36341e-12 0 0)
(5.05877e-12 0 0)
(7.25572e-12 0 0)
(2.33343e-12 0 0)
(4.32789e-12 0 0)
(2.39078e-12 0 0)
(2.79125e-12 0 0)
(1.20292e-12 0 0)
(1.05987e-13 0 0)
(1.21333e-12 0 0)
(4.10533e-12 0 0)
(7.79803e-13 0 0)
(3.8303e-12 0 0)
(-5.24603e-13 0 0)
(4.82059e-12 0 0)
(1.70949e-12 0 0)
(1.9095e-12 0 0)
(1.58192e-12 0 0)
(5.29749e-13 0 0)
(3.76625e-12 0 0)
(2.1723e-12 0 0)
(5.55935e-12 0 0)
(3.10419e-12 0 0)
(1.90474e-12 0 0)
(4.63842e-12 0 0)
(5.6184e-12 0 0)
(5.31418e-12 0 0)
(6.48821e-12 0 0)
(4.32632e-12 0 0)
(5.16227e-12 0 0)
(1.45371e-12 0 0)
(2.87619e-12 0 0)
(2.07595e-12 0 0)
(3.0473e-12 0 0)
(1.23492e-12 0 0)
(4.70314e-12 0 0)
(1.66885e-12 0 0)
(4.8052e-12 0 0)
(1.57029e-12 0 0)
(4.28122e-12 0 0)
(6.7833e-13 0 0)
(-5.36229e-14 0 0)
(-2.17324e-13 0 0)
(-2.194e-13 0 0)
(3.99346e-12 0 0)
(-7.36204e-13 0 0)
(3.9622e-13 0 0)
(1.51441e-12 0 0)
(-6.23549e-13 0 0)
(1.2099e-13 0 0)
(8.38711e-13 0 0)
(-1.60739e-12 0 0)
(-1.5919e-13 0 0)
(2.52817e-13 0 0)
(-1.5675e-12 0 0)
(-3.43103e-12 0 0)
(-1.74844e-12 0 0)
(-3.46767e-12 0 0)
(-3.2096e-13 0 0)
(-1.34585e-12 0 0)
(2.30351e-12 0 0)
(-1.33043e-12 0 0)
(-6.23898e-14 0 0)
(1.14416e-12 0 0)
(-2.61458e-13 0 0)
(-2.38939e-12 0 0)
(-3.046e-12 0 0)
(-1.61129e-12 0 0)
(-4.12285e-12 0 0)
(-2.87169e-12 0 0)
(-1.00514e-12 0 0)
(-4.02191e-12 0 0)
(-9.43029e-13 0 0)
(-1.28365e-12 0 0)
(-3.3515e-12 0 0)
(1.90469e-13 0 0)
(5.71092e-13 0 0)
(1.19076e-12 0 0)
(5.64596e-13 0 0)
(1.33251e-12 0 0)
(9.56594e-13 0 0)
(3.61216e-12 0 0)
(1.51395e-12 0 0)
(6.33801e-14 0 0)
(-1.01157e-12 0 0)
(-2.05452e-12 0 0)
(3.88543e-12 0 0)
(1.91606e-12 0 0)
(1.24349e-12 0 0)
(3.91854e-12 0 0)
(1.13961e-12 0 0)
(1.34434e-12 0 0)
(3.1961e-12 0 0)
(1.20513e-14 0 0)
(9.67775e-13 0 0)
(1.22099e-12 0 0)
(2.00984e-12 0 0)
(5.93933e-12 0 0)
(2.95199e-12 0 0)
(3.32993e-12 0 0)
(3.39584e-12 0 0)
(2.71113e-12 0 0)
(2.64094e-12 0 0)
(4.10292e-12 0 0)
(2.83169e-12 0 0)
(3.3493e-12 0 0)
(3.9859e-12 0 0)
(5.53216e-12 0 0)
(2.82125e-12 0 0)
(2.7656e-12 0 0)
(1.2256e-13 0 0)
(2.54518e-12 0 0)
(4.39052e-12 0 0)
(-2.53732e-13 0 0)
(4.3838e-13 0 0)
(2.41146e-13 0 0)
(1.66779e-12 0 0)
(-3.26291e-13 0 0)
(1.39495e-12 0 0)
(-2.9576e-12 0 0)
(5.12516e-13 0 0)
(3.11573e-13 0 0)
(1.19028e-12 0 0)
(8.23259e-13 0 0)
(-2.18654e-12 0 0)
(-8.28842e-13 0 0)
(-1.56502e-13 0 0)
(7.58004e-13 0 0)
(1.00992e-14 0 0)
(7.18157e-18 0 0)
(2.03121e-17 0 0)
(2.43283e-16 0 0)
(8.78629e-13 0 0)
(3.33417e-21 0 0)
(-8.78625e-13 0 0)
(-1.92432e-16 0 0)
(-7.41992e-13 0 0)
(-3.42636e-22 0 0)
(7.41985e-13 0 0)
(1.25499e-16 0 0)
(-5.77997e-13 0 0)
(1.43339e-12 0 0)
(9.34491e-13 0 0)
(4.89433e-13 0 0)
(1.74773e-12 0 0)
(6.26348e-13 0 0)
(-2.29556e-12 0 0)
(6.15761e-13 0 0)
(-1.16191e-13 0 0)
(-1.65234e-12 0 0)
(-1.33625e-12 0 0)
(-7.82809e-13 0 0)
(9.1374e-13 0 0)
(6.19832e-17 0 0)
(1.3175e-16 0 0)
(9.47569e-13 0 0)
(6.56852e-13 0 0)
(-2.75026e-13 0 0)
(-1.98265e-12 0 0)
(2.28609e-12 0 0)
(4.18477e-14 0 0)
(-9.19999e-13 0 0)
(-9.12228e-13 0 0)
(-4.17131e-13 0 0)
(-1.06962e-12 0 0)
(2.18396e-13 0 0)
(3.17733e-12 0 0)
(4.67909e-12 0 0)
(9.33329e-13 0 0)
(1.20641e-12 0 0)
(-2.97038e-12 0 0)
(1.7063e-13 0 0)
(1.70816e-12 0 0)
(-1.32586e-12 0 0)
(-1.93357e-13 0 0)
(-2.32046e-12 0 0)
(3.66569e-14 0 0)
(1.33006e-12 0 0)
(3.74377e-12 0 0)
(1.14208e-12 0 0)
(-3.61586e-13 0 0)
(1.22441e-12 0 0)
(1.62749e-12 0 0)
(3.93412e-13 0 0)
(-1.2052e-12 0 0)
(-1.73016e-12 0 0)
(1.34645e-12 0 0)
(8.0892e-13 0 0)
(3.49625e-14 0 0)
(-3.51977e-12 0 0)
(-3.73646e-12 0 0)
(-1.01157e-12 0 0)
(-1.56189e-12 0 0)
(-4.84212e-13 0 0)
(-5.07397e-13 0 0)
(1.96264e-12 0 0)
(-1.0713e-13 0 0)
(4.83924e-13 0 0)
(7.71955e-14 0 0)
(8.20237e-13 0 0)
(8.67405e-13 0 0)
(-3.63071e-13 0 0)
(2.05322e-12 0 0)
(5.83759e-13 0 0)
(1.60642e-12 0 0)
(2.48667e-12 0 0)
(-1.4518e-12 0 0)
(2.00951e-12 0 0)
(-7.00244e-13 0 0)
(9.30012e-13 0 0)
(5.71847e-12 0 0)
(1.77833e-11 0 0)
(6.10302e-11 0 0)
(1.7787e-10 0 0)
(5.24025e-10 0 0)
(1.49424e-09 0 0)
(4.19633e-09 0 0)
(1.15825e-08 0 0)
(3.14807e-08 0 0)
(8.42417e-08 0 0)
(2.2193e-07 0 0)
(5.75415e-07 0 0)
(1.46782e-06 0 0)
(3.68236e-06 0 0)
(9.08165e-06 0 0)
(2.20089e-05 0 0)
(5.2387e-05 0 0)
(0.000122412 0 0)
(0.000280651 0 0)
(0.000630955 0 0)
(0.0013901 0 0)
(0.00299927 0 0)
(0.00633256 0 0)
(0.0130732 0 0)
(0.0263653 0 0)
(0.051891 0 0)
(0.0995565 0 0)
(0.185958 0 0)
(0.337684 0 0)
(0.595187 0 0)
(1.01635 0 0)
(1.67783 0 0)
(2.67041 0 0)
(4.07992 0 0)
(5.94431 0 0)
(8.23865 0 0)
(10.9203 0 0)
(13.9528 0 0)
(17.294 0 0)
(20.8965 0 0)
(24.7136 0 0)
(28.7035 0 0)
(32.8313 0 0)
(37.0688 0 0)
(41.3937 0 0)
(45.7886 0 0)
(50.2399 0 0)
(54.7365 0 0)
(59.2696 0 0)
(63.8318 0 0)
(68.4168 0 0)
(73.0194 0 0)
(77.6345 0 0)
(82.2578 0 0)
(86.8852 0 0)
(91.5127 0 0)
(96.1364 0 0)
(100.753 0 0)
(105.357 0 0)
(109.946 0 0)
(114.515 0 0)
(119.059 0 0)
(123.574 0 0)
(128.053 0 0)
(132.492 0 0)
(136.884 0 0)
(141.221 0 0)
(145.496 0 0)
(149.7 0 0)
(153.822 0 0)
(157.853 0 0)
(161.779 0 0)
(165.592 0 0)
(169.267 0 0)
(172.804 0 0)
(176.17 0 0)
(179.356 0 0)
(182.347 0 0)
(185.117 0 0)
(187.662 0 0)
(189.946 0 0)
(191.967 0 0)
(193.718 0 0)
(195.182 0 0)
(196.372 0 0)
(197.302 0 0)
(197.983 0 0)
(198.455 0 0)
(198.743 0 0)
(198.894 0 0)
(198.957 0 0)
(198.971 0 0)
(198.972 0 0)
(198.964 0 0)
(198.944 0 0)
(198.903 0 0)
(198.843 0 0)
(198.768 0 0)
(198.697 0 0)
(198.651 0 0)
(198.62 0 0)
(198.6 0 0)
(198.589 0 0)
(198.584 0 0)
(198.581 0 0)
(198.579 0 0)
(198.577 0 0)
(198.576 0 0)
(198.575 0 0)
(198.573 0 0)
(198.571 0 0)
(198.57 0 0)
(198.569 0 0)
(198.568 0 0)
(198.566 0 0)
(198.564 0 0)
(198.562 0 0)
(198.561 0 0)
(198.56 0 0)
(198.559 0 0)
(198.558 0 0)
(198.557 0 0)
(198.555 0 0)
(198.551 0 0)
(198.549 0 0)
(198.543 0 0)
(198.538 0 0)
(198.553 0 0)
(198.592 0 0)
(198.682 0 0)
(198.901 0 0)
(199.044 0 0)
(198.887 0 0)
(198.655 0 0)
(198.53 0 0)
(198.458 0 0)
(198.423 0 0)
(198.445 0 0)
(198.492 0 0)
(198.498 0 0)
(198.466 0 0)
(198.45 0 0)
(198.473 0 0)
(198.491 0 0)
(198.465 0 0)
(198.426 0 0)
(198.424 0 0)
(198.449 0 0)
(198.44 0 0)
(198.388 0 0)
(198.355 0 0)
(198.372 0 0)
(198.386 0 0)
(198.341 0 0)
(198.279 0 0)
(198.264 0 0)
(198.28 0 0)
(198.253 0 0)
(198.176 0 0)
(198.119 0 0)
(198.109 0 0)
(198.094 0 0)
(198.015 0 0)
(197.918 0 0)
(197.862 0 0)
(197.835 0 0)
(197.76 0 0)
(197.625 0 0)
(197.509 0 0)
(197.431 0 0)
(197.351 0 0)
(197.186 0 0)
(196.971 0 0)
(196.798 0 0)
(196.659 0 0)
(196.477 0 0)
(196.161 0 0)
(195.808 0 0)
(195.527 0 0)
(195.307 0 0)
(194.919 0 0)
(194.231 0 0)
(193.5 0 0)
(192.887 0 0)
(191.987 0 0)
(189.612 0 0)
(183.771 0 0)
(168.691 0 0)
(121.152 0 0)
(49.7888 0 0)
(13.3034 0 0)
(3.28107 0 0)
(0.780724 0 0)
(0.184055 0 0)
(0.0432909 0 0)
(0.0101748 0 0)
(0.00239046 0 0)
(0.000561478 0 0)
(0.000131859 0 0)
(3.09616e-05 0 0)
(7.26888e-06 0 0)
(1.70624e-06 0 0)
(4.00436e-07 0 0)
(9.39614e-08 0 0)
(2.20435e-08 0 0)
(5.16994e-09 0 0)
(1.21265e-09 0 0)
(2.85068e-10 0 0)
(6.74572e-11 0 0)
(1.58895e-11 0 0)
(2.40976e-12 0 0)
(1.77444e-12 0 0)
(-6.71171e-13 0 0)
(-2.11274e-12 0 0)
(-2.40201e-12 0 0)
(-7.70765e-13 0 0)
(-1.21854e-12 0 0)
(2.47815e-12 0 0)
(2.02749e-12 0 0)
(1.95856e-12 0 0)
(1.22981e-12 0 0)
(-6.68542e-13 0 0)
(2.32007e-13 0 0)
(-1.47377e-12 0 0)
(-1.10785e-12 0 0)
(-4.257e-13 0 0)
(-6.46384e-13 0 0)
(2.58969e-12 0 0)
(1.62431e-13 0 0)
(6.20614e-13 0 0)
(2.76115e-12 0 0)
(-3.23774e-12 0 0)
(-1.14097e-12 0 0)
(-2.94543e-13 0 0)
(-7.59559e-13 0 0)
(-2.86799e-13 0 0)
(-2.51612e-13 0 0)
(-7.42279e-13 0 0)
(-1.79629e-13 0 0)
(-1.81345e-13 0 0)
(1.23892e-12 0 0)
(-4.32417e-13 0 0)
(4.40556e-13 0 0)
(2.55872e-12 0 0)
(-2.51747e-12 0 0)
(-4.68808e-13 0 0)
(-2.08168e-12 0 0)
(-2.59639e-12 0 0)
(2.06969e-12 0 0)
(1.90059e-12 0 0)
(1.25582e-12 0 0)
(1.10272e-12 0 0)
(4.91781e-13 0 0)
(-8.62202e-13 0 0)
(-2.62804e-13 0 0)
(-1.23471e-12 0 0)
(-2.33583e-12 0 0)
(-2.29564e-12 0 0)
(1.38192e-12 0 0)
(-2.12074e-12 0 0)
(-2.79702e-12 0 0)
(-1.62499e-12 0 0)
(-1.50908e-12 0 0)
(6.5212e-13 0 0)
(-1.70854e-12 0 0)
(1.17655e-12 0 0)
(-1.09499e-12 0 0)
(-1.35195e-12 0 0)
(-1.52198e-13 0 0)
(1.94591e-12 0 0)
(2.54502e-12 0 0)
(-7.73889e-13 0 0)
(6.10527e-13 0 0)
(6.59912e-13 0 0)
(1.6575e-12 0 0)
(3.56559e-12 0 0)
(1.03904e-12 0 0)
(-1.0821e-14 0 0)
(-5.18732e-13 0 0)
(5.18415e-13 0 0)
(-1.05853e-12 0 0)
(4.47604e-14 0 0)
(5.11937e-13 0 0)
(-3.05226e-12 0 0)
(-1.57519e-12 0 0)
(-2.55375e-13 0 0)
(-2.04301e-13 0 0)
(-2.06924e-12 0 0)
(-1.59198e-12 0 0)
(1.21325e-13 0 0)
(-1.11803e-12 0 0)
(-7.83625e-13 0 0)
(1.75733e-12 0 0)
(1.67915e-13 0 0)
(9.36915e-13 0 0)
(-3.38727e-13 0 0)
(-5.32823e-13 0 0)
(-6.27269e-13 0 0)
(2.72113e-12 0 0)
(1.60279e-12 0 0)
(3.33651e-12 0 0)
(2.07937e-12 0 0)
(5.70596e-13 0 0)
(1.53699e-12 0 0)
(5.65358e-13 0 0)
(8.8126e-13 0 0)
(9.00244e-13 0 0)
(3.2012e-12 0 0)
(1.69034e-13 0 0)
(-6.78785e-14 0 0)
(2.85438e-12 0 0)
(1.14207e-12 0 0)
(1.90977e-12 0 0)
(1.23557e-12 0 0)
(6.98538e-13 0 0)
(-3.18426e-13 0 0)
(-9.72798e-13 0 0)
(-1.27352e-12 0 0)
(1.02467e-13 0 0)
(-1.03715e-12 0 0)
(2.20493e-13 0 0)
(-1.6416e-12 0 0)
(4.53411e-13 0 0)
(-1.20448e-12 0 0)
(3.65113e-13 0 0)
(1.85242e-12 0 0)
(-1.84002e-12 0 0)
(1.16604e-12 0 0)
(-2.77819e-13 0 0)
(-1.35876e-12 0 0)
(-1.88766e-12 0 0)
(-4.27192e-12 0 0)
(-8.94675e-13 0 0)
(-1.59459e-12 0 0)
(-3.47766e-12 0 0)
(1.1536e-12 0 0)
(-8.76074e-13 0 0)
(3.87969e-12 0 0)
(2.1038e-12 0 0)
(-7.61968e-13 0 0)
(-1.33988e-12 0 0)
(2.78615e-12 0 0)
(-2.08021e-12 0 0)
(-4.63537e-14 0 0)
(-5.18554e-13 0 0)
(-1.051e-12 0 0)
(-9.56015e-13 0 0)
(3.48368e-12 0 0)
(2.83914e-12 0 0)
(2.03941e-12 0 0)
(4.70237e-12 0 0)
(6.12347e-13 0 0)
(7.96549e-14 0 0)
(-1.72393e-12 0 0)
(1.1497e-12 0 0)
(-1.29324e-12 0 0)
(-2.43636e-12 0 0)
(4.9785e-14 0 0)
(1.64104e-12 0 0)
(-2.468e-12 0 0)
(1.54041e-12 0 0)
(-3.05448e-14 0 0)
(-7.15283e-13 0 0)
(-3.87477e-12 0 0)
(-3.39462e-12 0 0)
(-2.46822e-12 0 0)
(-6.91789e-13 0 0)
(-8.21334e-13 0 0)
(8.12356e-13 0 0)
(-2.78277e-12 0 0)
(-3.33745e-12 0 0)
(-3.61909e-12 0 0)
(-1.95727e-12 0 0)
(-2.46618e-12 0 0)
(-3.492e-15 0 0)
(-4.51978e-14 0 0)
(-1.85804e-12 0 0)
(1.30318e-12 0 0)
(-6.28115e-13 0 0)
(8.84772e-13 0 0)
(2.92779e-13 0 0)
(2.84635e-12 0 0)
(2.50138e-13 0 0)
(1.11788e-14 0 0)
(-8.45708e-13 0 0)
(-2.01786e-12 0 0)
(-1.77868e-13 0 0)
(-6.71972e-13 0 0)
(-1.11754e-12 0 0)
(-2.75313e-13 0 0)
(4.73374e-13 0 0)
(-7.0603e-13 0 0)
(-2.73681e-12 0 0)
(6.33318e-13 0 0)
(1.968e-12 0 0)
(-4.70625e-13 0 0)
(1.50881e-12 0 0)
(2.84759e-12 0 0)
(9.06685e-13 0 0)
(3.46028e-12 0 0)
(1.42616e-12 0 0)
(1.84192e-12 0 0)
(-1.68837e-12 0 0)
(1.14847e-13 0 0)
(1.09942e-12 0 0)
(1.50428e-12 0 0)
(3.52242e-12 0 0)
(-1.27617e-12 0 0)
(4.3759e-14 0 0)
(1.67553e-12 0 0)
(5.19299e-13 0 0)
(2.91059e-12 0 0)
(1.82765e-12 0 0)
(5.68302e-14 0 0)
(2.79821e-12 0 0)
(1.97769e-13 0 0)
(1.15076e-12 0 0)
(3.53431e-12 0 0)
(2.42001e-12 0 0)
(1.34971e-13 0 0)
(1.39941e-12 0 0)
(-1.10137e-12 0 0)
(-1.18018e-12 0 0)
(-5.55039e-12 0 0)
(-3.56082e-13 0 0)
(-2.17759e-12 0 0)
(-2.60742e-12 0 0)
(-2.35983e-12 0 0)
(-2.01945e-12 0 0)
(-1.30495e-12 0 0)
(-6.41218e-13 0 0)
(-1.9659e-12 0 0)
(-4.04774e-13 0 0)
(-1.81551e-12 0 0)
(-2.19e-12 0 0)
(-3.43566e-12 0 0)
(-4.76932e-12 0 0)
(-4.07882e-12 0 0)
(-2.17053e-12 0 0)
(-2.27108e-12 0 0)
(1.72865e-12 0 0)
(1.09332e-12 0 0)
(4.22464e-13 0 0)
(3.42656e-12 0 0)
(1.4218e-12 0 0)
(3.28501e-12 0 0)
(1.51416e-12 0 0)
(1.92448e-12 0 0)
(-2.87935e-12 0 0)
(1.88593e-12 0 0)
(-2.34725e-12 0 0)
(6.32e-13 0 0)
(-6.0521e-14 0 0)
(-3.48158e-14 0 0)
(3.57298e-12 0 0)
(1.31733e-12 0 0)
(1.48121e-12 0 0)
(2.67223e-12 0 0)
(-2.88943e-13 0 0)
(-2.46279e-12 0 0)
(-1.19967e-12 0 0)
(-1.40538e-12 0 0)
(-2.45239e-12 0 0)
(4.98728e-13 0 0)
(3.57914e-13 0 0)
(-1.29271e-12 0 0)
(-7.88911e-13 0 0)
(-5.03859e-13 0 0)
(-3.40754e-12 0 0)
(-4.72531e-12 0 0)
(-4.16645e-12 0 0)
(-5.20682e-12 0 0)
(-4.86463e-12 0 0)
(-5.54459e-12 0 0)
(3.51799e-13 0 0)
(-4.9614e-12 0 0)
(-3.0477e-12 0 0)
(-5.27826e-12 0 0)
(-4.97626e-12 0 0)
(-3.79126e-12 0 0)
(-5.39078e-12 0 0)
(-2.84953e-12 0 0)
(-4.22257e-12 0 0)
(-5.48255e-13 0 0)
(-1.57142e-12 0 0)
(-9.20548e-14 0 0)
(-2.33529e-12 0 0)
(1.64988e-13 0 0)
(1.5975e-12 0 0)
(3.62265e-12 0 0)
(4.56132e-13 0 0)
(-1.08533e-12 0 0)
(-5.95824e-13 0 0)
(1.67028e-12 0 0)
(1.44929e-13 0 0)
(-7.62026e-13 0 0)
(4.18923e-12 0 0)
(-3.85254e-14 0 0)
(4.00558e-12 0 0)
(5.08234e-12 0 0)
(6.21366e-12 0 0)
(5.00215e-12 0 0)
(1.87493e-12 0 0)
(1.38485e-12 0 0)
(1.85321e-12 0 0)
(2.62158e-12 0 0)
(1.69453e-12 0 0)
(2.82001e-12 0 0)
(8.82288e-13 0 0)
(3.78235e-12 0 0)
(4.10278e-12 0 0)
(4.86907e-12 0 0)
(5.14081e-12 0 0)
(4.29912e-12 0 0)
(5.09909e-12 0 0)
(2.53007e-12 0 0)
(6.09598e-12 0 0)
(6.35904e-14 0 0)
(3.22181e-12 0 0)
(1.17018e-12 0 0)
(-1.32847e-12 0 0)
(-3.71808e-14 0 0)
(-2.18368e-12 0 0)
(-1.22083e-12 0 0)
(-1.16825e-12 0 0)
(1.1997e-12 0 0)
(-1.58874e-12 0 0)
(6.28983e-13 0 0)
(2.11863e-12 0 0)
(3.28615e-12 0 0)
(2.81715e-12 0 0)
(4.17799e-12 0 0)
(1.65977e-12 0 0)
(1.65389e-12 0 0)
(1.15945e-12 0 0)
(2.72274e-12 0 0)
(2.03587e-12 0 0)
(-9.2184e-13 0 0)
(1.24043e-12 0 0)
(-1.40596e-13 0 0)
(1.58815e-12 0 0)
(-1.6969e-12 0 0)
(-2.36515e-12 0 0)
(2.10924e-12 0 0)
(-6.15517e-13 0 0)
(-1.86148e-12 0 0)
(1.94353e-13 0 0)
(-1.99948e-12 0 0)
(6.88036e-13 0 0)
(1.74752e-17 0 0)
(2.46773e-18 0 0)
(1.85797e-19 0 0)
(2.21094e-18 0 0)
(1.66924e-15 0 0)
(1.59808e-18 0 0)
(-2.74549e-13 0 0)
(2.84501e-12 0 0)
(1.68055e-13 0 0)
(1.1043e-12 0 0)
(-1.70279e-13 0 0)
(-2.49713e-13 0 0)
(5.2396e-13 0 0)
(-1.20683e-12 0 0)
(1.28401e-12 0 0)
(-1.18892e-12 0 0)
(-8.41479e-13 0 0)
(3.81114e-13 0 0)
(5.24977e-13 0 0)
(1.87663e-12 0 0)
(-9.98869e-13 0 0)
(-2.17471e-12 0 0)
(-2.09197e-13 0 0)
(-1.71316e-12 0 0)
(2.64376e-13 0 0)
(5.35979e-14 0 0)
(5.88253e-18 0 0)
(1.37345e-13 0 0)
(6.24731e-13 0 0)
(1.72321e-12 0 0)
(3.34929e-12 0 0)
(3.29935e-12 0 0)
(4.47949e-12 0 0)
(5.88727e-12 0 0)
(3.82393e-12 0 0)
(5.81027e-12 0 0)
(4.98823e-12 0 0)
(7.10387e-12 0 0)
(9.54387e-12 0 0)
(1.04818e-11 0 0)
(9.76898e-12 0 0)
(9.25282e-12 0 0)
(1.03778e-11 0 0)
(7.91009e-12 0 0)
(7.8237e-12 0 0)
(1.02728e-11 0 0)
(9.26749e-12 0 0)
(1.15521e-11 0 0)
(1.15951e-11 0 0)
(1.48263e-11 0 0)
(1.12688e-11 0 0)
(1.33886e-11 0 0)
(1.34105e-11 0 0)
)
;

boundaryField
{
    sides
    {
        type            zeroGradient;
    }
    empty
    {
        type            empty;
    }
}


// ************************************************************************* //
